# vtk DataFile Version 4.1
vtk output
ASCII
DATASET POLYDATA
POINTS 4980 float
0.0494958 0.612856 0.228432
0.1288 0.612369 0.226362
0.184346 0.612199 0.226426
0.228914 0.612423 0.226443
0.268407 0.612795 0.22679
0.311457 0.61312 0.226654
0.371524 0.613423 0.226873
0.409753 0.613678 0.22697
0.47047 0.614906 0.226936
0.50856 0.616339 0.227029
0.546712 0.617446 0.227001
0.598332 0.620095 0.226811
0.664095 0.624649 0.226677
0.723997 0.632774 0.226627
0.76953 0.642439 0.226858
0.809295 0.655959 0.227012
0.850431 0.675013 0.227312
0.883102 0.693603 0.227349
0.90746 0.710236 0.227018
0.953418 0.742834 0.227047
1.0029 0.773381 0.227544
1.06224 0.797123 0.22761
1.1427 0.810166 0.227578
1.21917 0.808062 0.227289
1.29271 0.807408 0.227723
1.35797 0.810691 0.228242
1.42528 0.808341 0.22812
1.49913 0.789217 0.227861
1.55852 0.762795 0.227798
1.59217 0.744168 0.227783
1.63373 0.723202 0.228003
1.67133 0.705236 0.227716
1.71202 0.689216 0.227992
1.74729 0.678243 0.227961
1.78274 0.669682 0.227776
1.83344 0.661428 0.227608
1.88668 0.654916 0.227041
1.92342 0.65256 0.22686
1.95932 0.651089 0.226325
1.97809 0.650355 0.226199
1.97911 0.650394 0.22605
1.97952 0.650512 0.22604
1.97949 0.650749 0.225466
1.97958 0.651073 0.225542
1.97963 0.650918 0.225561
1.97978 0.651242 0.225433
1.98008 0.651116 0.225478
1.98004 0.651317 0.225388
1.98024 0.651008 0.225659
1.98027 0.650896 0.225151
0.121918 0.39719 0.116476
0.237532 0.397151 0.116784
0.350639 0.396808 0.116732
0.465769 0.395007 0.117122
0.576418 0.391087 0.117623
0.685999 0.382815 0.117765
0.782253 0.366694 0.117622
0.878475 0.330969 0.117645
0.967555 0.266443 0.117333
1.12809 0.19037 0.1175
1.34695 0.188664 0.118102
1.55609 0.217479 0.117622
1.70226 0.27593 0.118042
1.81579 0.305742 0.117971
1.92716 0.318717 0.118195
2.04191 0.322548 0.117272
0.0272684 0.980817 0.223124
0.0375032 0.980505 0.222783
0.0456147 0.980066 0.222717
0.0534261 0.97999 0.222942
0.0633714 0.980119 0.222669
0.0740037 0.980194 0.222867
0.0843931 0.980193 0.222761
0.0947943 0.980096 0.222338
0.111932 0.980202 0.222672
0.124683 0.980477 0.222795
0.146326 0.98074 0.223045
0.153897 0.980597 0.223027
0.159155 0.98022 0.222165
0.164231 0.979943 0.221708
0.172898 0.979663 0.2216
0.184576 0.980011 0.221676
0.1961 0.979858 0.221544
0.207574 0.979435 0.221509
0.219535 0.979174 0.221585
0.229268 0.979027 0.221521
0.235974 0.978624 0.22146
0.244041 0.978429 0.221341
0.25471 0.978455 0.221354
0.267108 0.978221 0.221216
0.297365 0.977947 0.221542
0.313119 0.977538 0.221214
0.325676 0.978225 0.221553
0.326494 0.978023 0.221478
0.326457 0.977668 0.221407
0.348068 0.97795 0.221558
0.351895 0.97822 0.221559
0.353864 0.978213 0.221649
0.354985 0.978642 0.221771
0.357036 0.978424 0.221779
0.361476 0.978608 0.221622
0.368662 0.978985 0.221547
0.379861 0.978942 0.221965
0.391203 0.979343 0.221778
0.400023 0.979474 0.222196
0.405698 0.979864 0.222341
0.408342 0.979821 0.222205
0.410139 0.979817 0.222525
0.411428 0.979865 0.222738
0.412752 0.979556 0.223122
0.413081 0.980189 0.22309
0.413027 0.980223 0.222911
0.413122 0.979817 0.22283
0.419091 0.979511 0.221995
0.430684 0.979597 0.221712
0.438874 0.979542 0.221436
0.443135 0.979073 0.221411
0.444594 0.979004 0.221423
0.445106 0.978588 0.221169
0.455133 0.979156 0.220988
0.466778 0.979718 0.221415
0.485378 0.980111 0.221547
0.50129 0.980374 0.22145
0.505209 0.981053 0.220934
0.51239 0.98117 0.220358
0.512335 0.981781 0.220511
0.512635 0.981763 0.220565
0.513374 0.981655 0.220366
0.513965 0.981868 0.220546
0.514848 0.981773 0.22034
0.515679 0.982088 0.220372
0.516354 0.982067 0.220675
0.517363 0.98203 0.221134
0.518168 0.98181 0.22061
0.519059 0.981513 0.22101
0.519796 0.981462 0.221115
0.520367 0.981771 0.221291
0.522039 0.982116 0.221188
0.52355 0.98246 0.221647
0.525868 0.982629 0.222062
0.528339 0.982719 0.222184
0.531561 0.982895 0.222554
0.53488 0.983052 0.222216
0.538659 0.982924 0.222467
0.542517 0.982686 0.222223
0.552554 0.982503 0.222524
0.558615 0.982555 0.222837
0.561666 0.982584 0.222451
0.563379 0.982438 0.222278
0.571639 0.983002 0.222394
0.581015 0.983557 0.222486
0.594638 0.983919 0.222701
0.605403 0.983943 0.222858
0.615841 0.983944 0.22207
0.626513 0.983844 0.221733
0.637382 0.984192 0.221658
0.643196 0.984056 0.221656
0.650275 0.98427 0.22128
0.661591 0.984452 0.221254
0.672678 0.984341 0.220976
0.683637 0.984579 0.220769
0.694694 0.985138 0.220581
0.706067 0.984692 0.220477
0.717699 0.985179 0.220513
0.729157 0.985203 0.220704
0.740671 0.984645 0.220741
0.752361 0.984586 0.220896
0.757458 0.984064 0.220816
0.767561 0.984023 0.220732
0.775139 0.984103 0.220693
0.777561 0.984351 0.220986
0.780712 0.984289 0.221114
0.783615 0.984713 0.221406
0.786667 0.984657 0.220939
0.789598 0.984718 0.220649
0.792445 0.98492 0.220613
0.794899 0.984865 0.220669
0.797365 0.985476 0.220546
0.799917 0.985207 0.220755
0.802225 0.985051 0.220956
0.805087 0.984962 0.2211
0.806281 0.984848 0.221117
0.807072 0.985194 0.221105
0.807632 0.98499 0.221675
0.807974 0.984831 0.221872
0.817246 0.984698 0.222185
0.825965 0.985292 0.221911
0.827662 0.985042 0.221662
0.827987 0.985258 0.221838
0.828388 0.985648 0.222044
0.829142 0.985886 0.222618
0.831079 0.985822 0.222745
0.834681 0.985782 0.223335
0.840984 0.985735 0.223686
0.85225 0.986114 0.223812
0.863077 0.986407 0.224008
0.866335 0.986282 0.223824
0.868444 0.986521 0.223811
0.869831 0.986239 0.223933
0.870803 0.986186 0.223812
0.871415 0.986065 0.223996
0.8715 0.985995 0.223665
0.871835 0.98598 0.223711
0.883472 0.986602 0.223957
0.887922 0.987346 0.224363
0.888498 0.987291 0.224649
0.889143 0.987087 0.22532
0.895348 0.986697 0.225573
0.908142 0.987064 0.225873
0.915884 0.98694 0.226211
0.91721 0.986773 0.225867
0.917892 0.986983 0.225575
0.919517 0.987124 0.225865
0.921529 0.987367 0.22553
0.922907 0.987681 0.2253
0.924074 0.988077 0.225284
0.924468 0.98822 0.225158
0.925323 0.988332 0.225549
0.926121 0.988251 0.225683
0.926542 0.988265 0.22577
0.931229 0.987866 0.225774
0.941431 0.987654 0.22597
0.955599 0.987697 0.225972
0.958456 0.988064 0.226014
0.966945 0.988348 0.225828
0.979288 0.98914 0.226205
0.983586 0.989113 0.226587
0.986188 0.989256 0.225887
0.987145 0.989228 0.225854
0.988321 0.989595 0.225891
0.988821 0.990136 0.225567
1.00673 0.990968 0.225699
1.02485 0.991276 0.225742
1.04408 0.991924 0.225727
1.0554 0.991774 0.225941
1.06785 0.991499 0.226439
1.0785 0.991732 0.226532
1.09007 0.991559 0.226311
1.09762 0.991221 0.225971
1.11439 0.991562 0.225266
1.14054 0.991564 0.225343
1.15418 0.991245 0.225789
1.16677 0.99075 0.225652
1.1801 0.990884 0.225897
1.1937 0.990901 0.226152
1.207 0.990889 0.226695
1.21322 0.990454 0.226227
1.2282 0.990494 0.226346
1.23438 0.990265 0.226287
1.24881 0.990261 0.226534
1.26056 0.990043 0.226219
1.26256 0.990031 0.22611
1.26965 0.990153 0.226118
1.27442 0.990237 0.226293
1.27723 0.990095 0.226162
1.27822 0.989642 0.226477
1.27924 0.989439 0.226384
1.27983 0.989252 0.226752
1.29496 0.989919 0.227886
1.30953 0.989577 0.228082
1.32393 0.988972 0.228121
1.33849 0.988836 0.227601
1.34498 0.988856 0.227308
1.35285 0.988848 0.22774
1.3679 0.988486 0.227533
1.37149 0.988577 0.2274
1.37249 0.988758 0.227558
0.0781561 0.7686 0.183481
0.167304 0.767462 0.184496
0.231265 0.768051 0.184986
0.323312 0.768622 0.184945
0.409375 0.77006 0.184914
0.488175 0.771879 0.184818
0.53874 0.77413 0.185072
0.625746 0.780355 0.185062
0.697009 0.786454 0.185096
0.790508 0.803008 0.185312
0.831777 0.814256 0.185205
0.947466 0.848444 0.184917
1.09599 0.884205 0.184784
1.2695 0.889365 0.184628
1.44599 0.886896 0.184644
1.6007 0.863875 0.18491
1.71561 0.839511 0.184957
1.80781 0.82728 0.185048
1.90042 0.82014 0.184186
1.98263 0.817972 0.184198
0.125948 0.738134 0.105527
0.238323 0.738595 0.105625
0.34395 0.739818 0.105923
0.454158 0.741619 0.106093
0.56707 0.745123 0.106131
0.677039 0.755059 0.106247
0.791175 0.776449 0.106432
0.9231 0.818658 0.106755
1.10212 0.863549 0.106642
1.3256 0.868687 0.106866
1.54358 0.851972 0.106537
1.70543 0.80746 0.106299
1.83065 0.784927 0.106215
1.94753 0.774091 0.106172
0.0405466 0.191164 0.247425
0.044292 0.191206 0.247703
0.0476226 0.191434 0.247839
0.0513768 0.191696 0.24741
0.0551803 0.191847 0.247975
0.0581282 0.191702 0.247758
0.0612275 0.191525 0.247796
0.065168 0.191395 0.247879
0.0685361 0.191513 0.247478
0.0725983 0.191902 0.247217
0.0771924 0.191895 0.247241
0.0818164 0.192239 0.247275
0.0863003 0.192243 0.247659
0.090164 0.192185 0.247765
0.0934153 0.192117 0.247923
0.0974895 0.192489 0.247424
0.101759 0.192319 0.24713
0.106569 0.192266 0.247089
0.111683 0.192229 0.246929
0.116482 0.19216 0.246849
0.121807 0.19225 0.246668
0.12692 0.192521 0.246529
0.132882 0.192871 0.246297
0.13973 0.192874 0.246308
0.146044 0.193002 0.246738
0.151699 0.192686 0.24645
0.158266 0.192541 0.245856
0.165589 0.192505 0.2459
0.172638 0.192354 0.24597
0.202367 0.192354 0.246302
0.203144 0.192248 0.246519
0.234003 0.192013 0.24661
0.239937 0.191451 0.246491
0.245629 0.191254 0.246645
0.251701 0.191293 0.246314
0.258346 0.191539 0.245938
0.265206 0.19102 0.246057
0.271916 0.191397 0.246113
0.278288 0.191295 0.246112
0.285092 0.191456 0.24613
0.291981 0.191474 0.246155
0.298382 0.191473 0.246524
0.32471 0.191116 0.246324
0.331198 0.190928 0.246243
0.337492 0.191239 0.246299
0.343857 0.191198 0.246268
0.351212 0.191183 0.24599
0.358632 0.191119 0.245423
0.366845 0.190808 0.245337
0.37975 0.190912 0.245506
0.387597 0.190667 0.245569
0.395284 0.190562 0.245243
0.42421 0.190296 0.244847
0.477357 0.189052 0.244615
0.48624 0.18873 0.244786
0.495336 0.18843 0.244654
0.504408 0.188062 0.244903
0.513701 0.187582 0.245028
0.522204 0.186966 0.244689
0.532145 0.186421 0.244663
0.541399 0.185959 0.244777
0.550498 0.184886 0.244648
0.560266 0.184224 0.244792
0.581906 0.182611 0.244286
0.591857 0.181541 0.244686
0.601379 0.181377 0.244795
0.646091 0.177943 0.244467
0.656304 0.177118 0.244528
0.666457 0.175831 0.244438
0.676615 0.174953 0.24479
0.686236 0.173399 0.245038
0.726947 0.167893 0.244829
0.736759 0.16631 0.244625
[...]
CELL_DATA 100
FIELD FieldData 1
StreamlineID 1 100 int
0 
1 
2 
3 
4 
5 
6 
7 
8 
9 
10 
11 
12 
13 
14 
15 
16 
17 
18 
19 
20 
21 
22 
23 
24 
25 
26 
27 
28 
29 
30 
31 
32 
33 
34 
35 
36 
37 
38 
39 
40 
41 
42 
43 
44 
45 
46 
47 
48 
49 
50 
51 
52 
53 
54 
55 
56 
57 
58 
59 
60 
61 
62 
63 
64 
65 
66 
67 
68 
69 
70 
71 
72 
73 
74 
75 
76 
77 
78 
79 
80 
81 
82 
83 
84 
85 
86 
87 
88 
89 
90 
91 
92 
93 
94 
95 
96 
97 
98 
99 


POINT_DATA 4980
VECTORS velocity float
 9.44504 -0.0714804 -1.24188
 16.1768 -0.0956049 0.174956
 14.4303 -0.00173446 0.0532865
 9.69497 0.027897 0.00756275
 7.92392 0.0429098 0.00274747
 7.94533 0.0584975 0.000562832
 7.87177 0.0817751 0.000456653
 7.71495 0.147843 -0.000320466
 16.6039 0.354973 -0.00160274
 7.585 0.241241 2.16495e-05
 7.75547 0.318525 -0.000726616
 13.1218 0.750252 0.00299469
 12.6805 1.04115 0.00814205
 7.02956 1.25539 0.00144844
 11.2744 2.48423 -0.00162993
 9.13942 3.2391 -0.0206175
 6.59292 3.3104 0.000403351
 6.58223 4.03149 0.0170663
 6.82614 4.67744 -0.0024328
 8.32291 5.80875 0.0259285
 10.7002 6.13484 0.0300615
 13.7295 4.9693 0.0237885
 15.9992 1.52815 -0.00619909
 14.4075 -0.713429 -0.0244102
 14.4839 0.273289 0.00387618
 11.1814 0.440686 0.00538108
 18.6105 -0.793819 0.0300203
 14.1732 -4.47846 -0.012322
 10.9436 -5.30366 -0.0162556
 11.4295 -6.27348 -0.0196157
 7.28578 -3.79513 -0.00889576
 7.33495 -3.38088 0.00509996
 7.06228 -2.55476 -0.00478141
 7.04023 -1.95524 0.0125358
 7.10059 -1.54276 -0.00934367
 12.8479 -1.88659 -0.0354035
 18.2206 -2.05531 -0.063851
 7.2654 -0.390648 -0.0493518
 7.22284 -0.297406 -0.0682046
 0.365127 0.0253775 -0.0247431
 0.0586573 0.0349792 -0.00454239
 0.0448469 0.0360167 -0.00355083
 0.116232 0.0336244 -0.00831116
 0.0308164 0.0373373 -0.00249495
 0.0512312 0.0370698 -0.00365825
 0.134622 0.0311628 -0.0103149
 0.0173318 0.0377199 -0.00170735
 0.106747 0.0328365 -0.00843105
 0.0800634 0.0327144 -0.00713474
 -0.00839234 0.0380458 -0.000419337

 23.3628 0.10906 0.164991
 23.3919 -0.0346997 -0.0104193
 21.9872 -0.133099 -0.0023071
 23.0337 -0.386425 0.000868172
 22.5486 -0.841521 0.00254506
 21.5686 -1.94107 -0.00380305
 19.1081 -3.9039 -0.00647323
 18.8312 -8.92754 -0.00303657
 17.9936 -14.1891 0.0331855
 36.9384 -13.3608 -0.0391989
 41.22 0.360377 -0.00273107
 40.0112 11.0045 0.033633
 25.4904 10.6567 0.00736794
 22.1393 4.76748 -0.00597689
 22.4753 2.17797 0.0319191
 22.7461 0.571945 -0.290697

 2.12402 -0.190688 -0.106276
 2.08157 -0.0610172 -0.0247325
 1.12527 -0.000520432 0.0143495
 1.67725 -0.0125133 0.0146968
 2.06111 -0.0142693 0.0145245
 2.11907 0.00359769 0.0159641
 2.12602 0.00169866 0.0114618
 2.14966 0.00322002 0.00515369
 2.61734 0.0104782 0.0139045
 2.8609 0.0264652 0.000192049
 4.86985 0.0626072 0.0176616
 1.65131 0.0104263 0.00137546
 0.619031 -0.0183859 -0.0642317
 1.20764 -0.0250794 -0.0428055
 1.93489 -0.0232082 -0.0161063
 2.41437 -0.00247257 0.0102151
 2.17948 0.0111733 0.0507288
 2.81379 -0.160965 -0.102681
 2.35412 -0.00801695 0.00197699
 1.78346 -0.00410685 0.0019372
 1.22533 -0.00422006 0.00418699
 1.80911 0.000848726 0.00329366
 2.29708 0.00639613 0.001044
 2.58561 0.0097788 -0.00185781
 5.38772 0.0100905 0.00955752
 3.40891 0.00181162 -0.00309876
 0.165367 -0.00299052 9.85415e-05
 0.0442779 -0.00298527 2.00225e-05
 0.0443554 -0.0031619 2.35798e-05
 1.36269 0.0088081 -0.00306556
 0.714799 0.00414866 -0.0015016
 0.22915 0.000651388 -0.000393163
 0.290643 -0.00119482 -1.89089e-05
 0.514509 -0.000204191 0.000121137
 1.01386 0.0014614 0.000808288
 1.68237 0.00439503 0.00168105
 2.35303 0.00812543 0.00317797
 2.47155 -0.00149767 0.00662099
 1.50715 0.00491778 -0.00734957
 0.86355 0.00425088 -0.00440295
 0.526428 0.00421107 -0.00274339
 0.318888 0.00393077 -0.00159119
 0.234612 0.00396119 -0.00115818
 0.167294 0.0037842 -0.000784789
 0.0367471 0.00400638 -0.000100954
 0.0314947 0.0037048 -6.76436e-05
 0.0251655 0.00386822 -3.65702e-05
 2.38787 0.00579971 -0.0118234
 2.25124 0.0110313 0.000553261
 1.45301 0.0052976 0.00267611
 0.697868 -0.00271879 -0.000223562
 0.233578 -0.00784688 -0.00264757
 0.116076 -0.0095286 -0.00354586
 1.32289 0.0711283 0.0121588
 2.86096 0.0423861 0.0620108
 3.52633 -0.00524672 0.0452244
 2.34724 -0.0228225 -0.0653026
 0.478862 0.0463614 -0.097205
 2.45296 -0.0234497 -0.0552778
 0.057961 -3.97896e-06 0.00504514
 0.120336 -1.02716e-05 0.00479019
 0.111544 -1.83215e-05 0.004665
 0.112594 -2.14553e-05 0.0044342
 0.124661 -3.56694e-05 0.00424057
 0.157279 -6.25653e-05 0.00382325
 0.14609 -6.18768e-05 0.00369125
 0.202508 -9.72822e-05 0.00319103
 0.155577 -7.42988e-05 0.00324699
 0.123135 -6.39912e-05 0.00325984
 0.133305 -7.11391e-05 0.00308904
 0.235461 -0.000144261 0.00245229
 0.274638 -0.000200921 0.0020192
 0.318769 -0.000257025 0.00161345
 0.446243 -0.000421576 0.000551203
 0.490796 -0.000520827 0.000210406
 0.619374 -0.000746836 -0.000725298
 0.692677 -0.000962143 -0.000942642
 0.779641 -0.00117926 -0.00105035
 0.7259 -0.00116092 0.00121647
 1.75772 0.0304352 0.0217974
 1.0206 0.0113886 0.00969212
 0.566817 -8.14256e-05 0.00341857
 0.321777 -0.00660301 8.32128e-05
 1.0346 0.0663696 -0.0058716
 2.33968 0.0545406 0.0705776
 2.12171 0.0170252 0.0108845
 2.07082 -0.0458716 -0.0456464
 2.14636 -0.0196094 -0.0626786
 2.21416 0.00424525 -0.0800025
 1.83449 0.0167318 -0.00740516
 0.971048 0.00115412 -0.00863832
 2.26238 0.00764245 0.0100624
 2.23395 0.01249 0.0055076
 2.2188 0.0173912 0.00334339
 2.1728 0.0218129 0.00342513
 2.26004 0.0201844 0.0032104
 2.27577 0.0309432 -0.000356585
 2.30536 0.0249047 0.0101628
 2.27874 0.0192117 0.00896298
 2.35412 0.0151535 0.00616738
 2.38539 0.0225346 -0.010032
 1.30224 0.0267139 0.00968733
 2.276 0.0478131 0.0213794
 0.515959 0.00345439 0.0035133
 0.438995 0.00285981 0.00502293
 0.556796 0.00351917 0.00933732
 0.619766 0.00374196 0.0126348
 0.590448 0.00334104 0.0142906
 0.558594 0.00288156 0.0153777
 0.533363 0.00247821 0.015741
 0.499051 0.00206701 0.0154832
 0.533305 0.00185028 0.0149556
 0.502921 0.00141347 0.0135927
 0.483453 0.000988721 0.0119462
 0.381363 0.0020172 0.014703
 0.181466 0.000796669 0.0162139
 0.135437 0.000512782 0.0160436
 0.0785004 0.000229792 0.0161329
 0.0562252 0.000137177 0.0163783
 3.56276 0.0949102 2.2339e-05
 1.09829 0.0379894 -0.00030721
 0.0870015 0.0151656 -1.45629e-05
 0.0740352 9.53525e-05 0.0273794
 0.166058 0.000366404 0.027248
 0.245579 0.000707036 0.0270541
 0.425255 0.00165047 0.0269882
 0.803982 0.00429157 0.0274992
 1.46119 0.0109261 0.0292859
 2.61653 0.0294725 0.0344987
 0.854218 0.00772715 0.0189273
 0.568643 0.00389047 0.0175079
 0.390356 0.00210786 0.0167061
 0.2531 0.00109778 0.0161743
 0.151938 0.000530743 0.0160595
 0.0943067 0.000256174 0.015806
 0.0586594 0.000110413 0.0161233
 0.0385409 2.49358e-05 0.0160982
 1.90527 0.0745388 -0.00329042
 0.523362 0.0270328 -0.000568069
 0.147327 0.0143324 -0.000110322
 0.0718754 0.0117329 -2.63722e-05
 2.17152 -0.0126639 0.0372246
 2.60589 0.0329127 0.0416614
 1.09217 0.0194252 0.017569
 0.206662 0.00344556 0.00290575
 0.0986645 0.00143377 0.000405319
 0.558721 0.000415675 0.0144574
 0.392586 0.000364864 0.0112556
 0.268511 0.000274667 0.00909303
 0.197455 0.0002415 0.00735359
 0.159356 0.000224046 0.00640107
 0.119212 0.000156001 0.00555641
 0.0969344 0.000107259 0.00484953
 0.0508222 2.93965e-05 0.00409916
 1.64155 -0.00788537 0.029127
 2.18085 0.00414253 0.0383109
 2.96792 0.0313081 0.0437518
 0.729828 0.0294164 0.00300908
 2.13984 0.0718496 0.00998168
 1.14232 0.0318941 0.0280269
 0.706735 0.014286 0.020543
 0.403357 0.00595591 0.0157966
 0.244655 0.0028066 0.0139259
 0.147961 0.000943654 0.0118916
 0.0986136 0.000197871 0.0108903
 3.30469 0.0115608 -0.0143654
 3.72495 0.0127858 0.0241494
 2.22119 0.0238178 0.0113465
 2.32862 -0.00129261 0.151552
 2.44959 -0.0227422 0.0168483
 2.14607 -0.0138293 0.0352684
 2.36279 -0.0519064 0.00476635
 1.82642 0.0317207 -0.0330558
 4.00661 0.0981316 -0.024598
 3.31447 -0.129199 -0.00197291
 2.51325 -0.0190856 0.0554424
 2.52707 -0.0278186 0.0116597
 2.66657 0.0102842 0.164798
 2.71533 0.00646756 -0.0330296
 2.49008 -0.116751 0.0204779
 1.49917 -0.0137951 -0.0131507
 3.71888 -0.0287809 -0.0230527
 1.52155 0.0102483 -0.00282334
 3.24636 0.0174389 0.0289907
 1.69503 0.00487199 0.00728755
 0.17484 0.000326216 -0.00132913
 1.27579 0.0188891 0.0276528
 0.807727 0.00920051 0.0211858
 0.458842 0.00404154 0.016296
 0.271099 0.00181065 0.0139236
 0.19327 0.00103466 0.0131811
 0.0953283 0.000111912 0.012552
 2.99088 0.0171349 0.167541
 2.92924 0.0112529 -0.0136301
 2.95022 -0.142321 0.0113864
 3.03043 -0.0291341 -0.0371162
 0.547057 0.000174335 -0.00398872
 2.90819 0.00217773 0.0590304
 2.72064 0.00920656 0.00313901
 1.36063 0.00499262 -0.00359418
 0.316242 0.00102613 -0.00308676

 12.3865 -0.389642 -0.00123782
 18.0813 -0.114513 0.172024
 9.35879 0.0681439 0.00549226
 17.3064 0.183733 -0.00120134
 17.0442 0.293077 -0.000730287
 17.0441 0.459849 0.00084504
 17.4681 0.71452 0.00308406
 17.4979 1.69605 -0.00612561
 10.337 1.3788 0.0125976
 19.0356 3.74808 -0.00684655
 9.36555 2.76727 -0.0329557
 24.3313 8.04498 0.00849346
 31.991 5.34688 0.000868942
 34.4238 0.0281606 0.0428433
 35 -1.1066 -0.0252478
 27.753 -5.25372 -0.0134775
 22.1637 -4.52432 -0.0145249
 18.9858 -1.9486 -0.0287897
 18.3913 -0.829303 -0.178143
 13.1458 0.147304 0.0954808

 23.1595 -0.379948 0.0271566
 22.3591 0.148925 -0.00695667
 19.302 0.211138 -0.00810903
 22.2298 0.507491 -0.00175543
 22.7825 0.689828 -0.00115278
 22.625 2.35121 0.00667124
 23.1084 5.22273 0.00896379
 27.642 9.2207 -0.0137389
 40.423 9.12828 -0.00757719
 44.8217 -0.238756 0.00204669
 42.8452 -6.12661 0.00158712
 30.0137 -8.77469 0.00519776
 23.8831 -3.47133 0.00882587
 23.4814 -1.76112 0.0105525

 0.76245 0.0297564 0.0427822
 0.67422 0.0188961 0.046956
 0.67294 0.011962 0.0510992
 0.747383 0.0646278 -0.0853763
 0.717864 0.0133623 0.00185516
 0.570234 0.00996208 0.00162188
 0.682102 0.0144675 0.00219132
 0.688681 0.0157617 0.0024807
 0.697361 0.0173673 0.00278126
 0.883839 0.0246187 0.00396503
 0.896659 0.0270785 0.00448522
 0.847025 0.0277581 0.00464696
 0.849213 0.0296092 0.00503448
 0.760893 0.0199339 0.00481256
 0.656416 0.0191212 0.00429002
 0.748511 0.0245662 0.00514205
 0.906791 -0.000241151 0.00414813
 1.00125 -0.000311067 0.00494153
 1.03207 -0.0055281 -3.26005e-06
 1.08582 -0.00586869 0.00023779
 1.11103 -0.00596619 0.00055019
 1.10525 -0.00594102 0.000839058
 1.19725 -0.00626051 0.0011891
 1.32194 -0.0063349 0.00180032
 1.15121 -0.00590858 0.00191081
 1.09214 -0.00576687 0.00211156
 1.33811 -0.0129833 0.00170627
 1.45755 -0.0159522 0.00151743
 1.3865 -0.0171318 0.0010515
 2.30575 -0.018041 0.00234757
 0.195492 -9.98847e-05 0.000128234
 12.197 -0.108922 0.00754489
 1.23097 -0.0120326 -0.000438422
 1.12931 -0.011866 -0.000169322
 1.18883 -0.0136013 5.47149e-05
 1.37145 -0.0169947 0.000360826
 1.36739 -0.0183982 0.00068396
 1.36799 -0.0148174 0.000151946
 1.31324 -0.0151552 8.09533e-05
 1.33076 -0.0162524 1.98995e-05
 1.31814 -0.01695 -4.8905e-05
 1.22937 -0.0164804 -0.000109829
 1.25703 -0.0219115 0.00119019
 1.33424 -0.0185366 -0.000256392
 1.23534 -0.0161243 -0.000105423
 1.25774 -0.015585 2.70561e-05
 1.35946 -0.016009 0.00018835
 1.60861 -0.0180495 0.000431626
 1.65185 -0.0173768 0.000665801
 1.6698 -0.0261542 -0.000825037
 1.5579 -0.0267019 -0.000960446
 1.53185 -0.0282571 -0.00112887
 9.868 -0.174637 -0.00805059
 17.4997 -0.441139 -0.0271236
 1.80422 -0.0547068 -0.00105975
 1.87212 -0.0693075 -0.00029462
 1.84099 -0.0926986 0.000393395
 1.82745 -0.09174 9.70039e-05
 1.79913 -0.0902344 -0.000250649
 1.93634 -0.0966116 -0.000622247
 1.71928 -0.0847631 -0.000903416
 1.9618 -0.133784 0.0013563
 1.8366 -0.119824 0.00172233
 1.9816 -0.123337 0.0001618
 2.00195 -0.118722 0.000440844
 1.84028 -0.104411 0.000662285
 1.95169 -0.181701 -0.000374259
 1.99516 -0.172247 -0.00088664
 2.03697 -0.207107 -0.000273121
 1.97637 -0.210535 -0.000874813
 1.92234 -0.216077 -0.00142489
 1.9365 -0.276971 -0.000771969
 1.99731 -0.294843 0.00117485
 2.07237 -0.325565 0.0010077
 1.99341 -0.330411 -0.00130773
 1.95988 -0.337371 -0.000997518
 1.76798 -0.316308 -0.000665905
 1.81768 -0.339054 -0.000425921
 1.81481 -0.363627 0.00240419
 1.85774 -0.34997 0.00185598
 2.17439 -0.517169 -0.0023539
 2.25098 -0.451838 0.00685797
 2.1885 -0.379135 0.00290454
 2.0362 -0.331478 0.00293942
 2.16772 -0.445964 -0.00103456
 2.17381 -0.490934 -0.00244521
 1.81267 -0.287317 0.0054187
 1.59553 -0.266873 0.00469905
 1.77334 -0.384409 -0.00222449
 1.93627 -0.41474 0.0010517
 1.95955 -0.414982 0.00465386
 2.12057 -0.27824 -0.00228495
 10.3106 -1.33688 -0.00562081
 3.0377 -0.284564 0.000668073
 2.79089 -0.207021 0.00698575
 3.09576 -0.144511 0.000675623
 2.86794 -0.0959265 0.00129709
 3.35356 -0.150377 0.00213038
 3.3166 -0.0547388 -0.0018226
 3.19041 -0.0280457 0.000753746
 3.49074 -0.0104559 -0.018922
 3.71054 0.0208164 1.82403e-05
 31.1045 -0.105977 -0.00343281
 22.6444 0.0839167 -0.0105284
 3.48908 0.159627 -0.00114809
 3.71165 0.206468 -0.00728657
 4.11548 0.45088 -0.00134954
 3.47719 0.356236 -0.000654059
 3.4726 0.403383 -0.0039577
 3.32544 0.461096 -0.00238215
 3.46662 0.46164 0.000488852
 3.41457 0.542101 0.00167115
 3.13079 0.542984 -0.00240412
 2.75966 0.387474 -0.00822767
 2.30341 0.334766 -0.00426428
 2.40319 0.485497 0.000177596
 2.48095 0.449348 -0.000619745
 2.29764 0.369984 -0.00132458
 2.14524 0.281038 0.0203343
 1.90207 0.222493 -0.00158014
 1.8741 0.31093 -0.00262776
 1.88578 0.317229 -0.00174171
 1.86697 0.316888 -0.000872655
 2.16113 0.366871 -5.97791e-05
 1.86444 0.247769 -0.00249254
 1.84789 0.24295 -0.00185404
 1.89704 0.2909 0.00132612
 1.96366 0.330733 0.00245495
 1.89349 0.350986 0.00331595
 1.72468 0.307114 0.00309087
 7.09414 1.02932 0.00710024
 1.56442 0.176186 0.000277915
 1.4126 0.155624 0.000609977
 1.43143 0.152991 0.000932815
 15.6567 1.99471 -0.0440875
 1.40382 0.113853 -0.00112127
 1.42464 0.114721 -0.00167725
 1.46361 0.115996 -0.00233431
 1.35162 0.0856255 -0.00492042
 1.34311 0.0891464 -0.00427922
 1.31649 0.0924897 -0.00353458
 1.24016 0.0417443 -0.00176568
 1.25773 0.0463375 -0.00114579
 1.48193 0.0605991 -0.000886076
 1.54825 0.0724937 -7.34609e-05
 1.42953 0.0352856 -0.00425449
 1.50973 0.0291155 -0.00479406
 1.49653 -0.0451663 -0.0170888
 1.59974 -0.0317906 -0.0171802
 1.47932 -0.0176177 -0.0148347
 1.40122 -0.00888111 -0.0130605
 1.36096 -0.00425811 -0.0117925
 1.31128 -0.00279741 -0.0105549

 19.6345 0.36334 -0.304021
 18.9777 -0.00522159 -0.0854743
 18.1554 -0.0236665 -0.0691269
 19.1911 -0.274458 -0.00106962
 21.4308 -0.632365 -0.00344141
 18.166 -0.757748 -0.00283421
 19.3895 -1.97021 -0.00752313
 18.3613 -3.01709 0.00657528
 20.5416 -7.05935 0.0026353
 21.3185 -9.85484 -0.00768645
 37.1453 -7.79596 -0.0161721
 38.9313 0.166038 0.0238848
 36.7069 3.99436 0.0238388
 26.8497 7.31962 0.0224407
 24.6556 5.13906 -0.00236109
 21.078 2.95491 0.0221577
 19.6358 0.564512 0.326116

 11.0157 -0.974189 -1.22041
 11.989 -0.247749 0.145926
 11.9485 -0.00586624 0.0661411
 17.9111 0.122763 0.0273791
 12.2733 0.121021 -0.00707265
 15.2329 0.219866 0.00689954
 13.8343 0.254078 0.00485276
 12.2392 0.368143 -0.000124018
 11.4505 0.495698 -0.00355653
 12.3564 0.787889 0.00382405
 14.8116 1.39484 -0.010133
 13.3056 2.05066 -0.028887
 14.4253 3.06129 0.0133018
 5.91579 1.22552 0.0241009
 19.7308 5.05744 0.0175031
 16.8943 2.35722 0.0462526
 25.1014 0.970429 0.0434897
 24.7563 0.00440575 0.00433703
 25.0133 -0.717022 -0.0323207
 25.4032 -3.09763 -0.0458984
 13.4382 -2.73047 -0.00159253
 18.1251 -3.50705 -0.0304415
 14.5089 -1.47124 -0.0133389
 14.4001 -1.22161 -0.0478892
 12.6992 -0.547966 -0.109134
 12.7831 0.221707 0.0735346

 9.79621 -0.0971534 -1.48202
 16.3247 -0.0998394 0.143582
 14.7503 -0.00333786 0.054491
 10.0343 0.0324475 0.00790344
 4.96951 0.0290348 0.000552572
 8.3077 0.05787 0.000597727
 8.31685 0.0860793 0.000546906
 8.32293 0.156998 -0.000269492
 6.67252 0.151837 -0.00236122
 8.31834 0.25153 -0.000295418
 8.10643 0.331037 -0.0003415
 13.7915 0.789507 0.00222861
 12.011 0.996471 0.00834019
 7.7198 1.31793 0.000980407
 7.6112 1.7318 -0.00163176
 7.2114 2.27658 -0.0110848
 6.72986 2.9456 0.00706683
 6.96235 3.77257 0.00967595
 1.92162 1.31003 0.00236555
 7.75529 5.4582 0.00421027
 10.1886 6.64686 0.028248
 11.7949 5.43793 0.0193724
 17.4906 3.69368 0.0116354
 17.551 -0.607562 -0.026714
 16.059 0.221126 0.00195216
 16.8856 0.865926 0.0309157
 18.0059 -1.84028 0.0204324
 16.2536 -5.41624 -0.0113162
 12.1641 -6.45786 -0.00884502
 6.83249 -3.48877 -0.00902035
 8.22569 -3.81258 0.00488482
 7.95337 -2.97028 -0.00666236
 7.87778 -2.21368 0.0140235
 7.88225 -1.69374 -0.0124563
 10.5544 -1.67129 -0.0310289
 7.9662 -0.614903 -0.0298441
 7.97528 -0.357119 -0.100396
 7.70039 -0.263713 -0.0912832
 0.851449 2.0746e-05 -0.0531104
 0.288226 0.0209914 -0.0211705
 -0.0434273 0.0345555 -0.00341682
 -0.0575728 0.036485 -0.00200878
 0.0721108 0.0306353 -0.00956354
 0.0962296 0.0304977 -0.0107665
 0.128847 0.028593 -0.0127073
 0.112595 0.0291904 -0.011995
 0.0272659 0.0330259 -0.0073016
 -0.00492774 0.0349747 -0.0053016
 -0.0575366 0.0376339 -0.00216635
 -0.0606776 0.0381255 -0.00170128

 7.61428 -0.22561 0.125602
 7.65908 -0.164159 0.0693463
 13.5105 -0.0195292 0.0888104
 7.65956 0.0500585 0.0150302
 7.64185 0.064556 0.00409205
 7.64401 0.0788016 -0.00102981
 8.03453 0.0948681 -0.00120221
 7.48255 0.100984 -0.000566551
 7.60264 0.168663 -0.000970939
 7.37466 0.154269 -0.00380103
 16.6533 0.579034 -0.00040109
 7.46498 0.348169 -0.00135373
 7.52977 0.460789 0.00263967
 9.03816 0.735384 -0.00745516
 7.72325 0.819987 0.00331865
 6.57827 0.882563 0.0109615
 7.76648 1.05583 -0.00500441
 7.87392 1.49168 -0.0208148
 8.1865 1.8657 0.00224372
 9.59378 2.91461 0.00819989
 22.2386 6.71514 0.0119187
 13.3698 3.04716 0.0022408
 15.2659 1.82659 0.00250469
 15.7004 0.439913 0.0197951
 15.5099 -0.0480196 -0.00597072
 15.6379 0.0733736 -0.034506
 22.9696 -1.28144 -0.0129488
 19.3707 -2.9485 -0.0133353
 13.111 -3.19346 0.00392904
 8.04429 -2.29985 -0.00512612
 12.0927 -3.29922 0.00852219
 8.99256 -2.07712 0.00949179
 8.41107 -1.55021 -5.37654e-05
 4.55131 -0.525748 -0.00371897
 0.909635 -0.102838 -0.000338507
 0.276205 -0.0322576 -8.28546e-05
 0.211731 -0.025173 -6.08607e-05
 0.049229 -0.00718435 -1.22724e-05
 0.0755944 -0.0102443 -2.02618e-05
 12.8802 -1.2015 -0.0115694
 21.2057 -0.865194 -0.219669
 14.1248 0.115156 1.08366

 5.01269 0.197568 0.23576
 8.69097 0.125692 -0.195667
 12.236 0.0961236 -0.108812
 2.03003 -0.00572689 -0.000663988
 1.49429 -0.0066207 0.000411601
 1.04432 -0.00598547 0.000725807
 11.0912 -0.0555446 -0.0274693
 11.1512 -0.106151 -0.01286
 11.0569 -0.134898 -0.00144687
 15.3444 -0.265726 0.000338615
 15.5525 -0.372738 -0.000816956
 11.097 -0.439478 -0.00121297
 11.2627 -0.597742 -0.00440099
 17.1204 -1.25312 0.00105747
 11.2865 -1.41416 -0.0110767
 11.422 -2.00863 0.00615172
 1.21941 -0.277704 0.0056097
 12.692 -3.34143 0.0007328
 15.1123 -4.67327 -0.0238535
 11.4099 -3.21103 -0.00624197
 23.6367 -4.46481 0.00553747
 23.9274 -0.583225 0.0173776
 22.4719 -0.0572822 -0.00649569
 26.0331 0.984606 0.0105416
 5.70635 0.937215 0.00642735
 21.0969 4.93919 0.0128074
 19.2748 5.54952 0.0357662
 13.2753 3.07231 0.00686054
 12.296 1.99109 -0.00669678
 15.5303 1.76814 0.0505273
 11.3663 0.616726 0.081562
 16.3085 0.120496 -1.19784
 -0.0219305 0.0147751 0.0577581
 -0.0377796 0.0147495 0.0574317

 0.947179 -0.0198168 0.0609146
 0.856633 -0.0136486 0.0799127
 0.766494 -0.00821862 0.0954429
 0.751721 -0.00234557 0.116252
 1.58649 0.0209071 0.0242908
 2.08068 0.030226 0.0284454
 2.48807 0.00826974 0.0144244
 1.38403 0.00623365 -0.0120652
 1.42228 0.00821624 -0.00791671
 1.54912 0.0106178 -0.00407125
 1.38815 -0.000112197 -0.00804937
 1.44766 -0.0018018 -0.0102603
 1.48745 -0.00352019 -0.0125385
 1.5831 -0.00557796 -0.0142342
 1.61056 -0.00758149 -0.0154923
 1.66455 -0.00971471 -0.0162206
 1.46331 -0.00470951 0.00843104
 1.43551 -0.00506961 0.00929386
 1.41613 -0.00544153 0.00824513
 1.44365 -0.00607531 0.00540049