<VTKFile type='UnstructuredGrid' version='1.0' byte_order='LittleEndian' header_type='UInt64'>
<UnstructuredGrid>
<Piece NumberOfCells='500' NumberOfPoints='500'>
<Points>
<DataArray NumberOfComponents='3' type='Float32' Name='Position' format='ascii'>
1.712023 0.689216 0.227992
2.041913 0.322548 0.117272
0.354985 0.978642 0.221771
2.032789 0.817449 0.183718
2.006422 0.772777 0.106364
0.239937 0.191451 0.246491
2.021840 0.236634 0.075397
2.017995 0.818960 0.207017
1.748208 0.681708 0.225204
1.773250 0.796295 0.227032
1.999601 0.221920 0.033726
0.363361 0.005404 0.057689
1.610919 0.665713 0.220847
0.857437 0.192938 0.237299
2.020090 0.731064 0.214867
2.029884 0.896507 0.149988
2.019396 0.268186 0.204956
2.024177 0.929727 0.162309
1.729601 0.837831 0.219384
2.028493 0.103892 0.112536
2.053310 0.240382 0.149626
0.449037 0.105275 0.229101
2.013011 0.752185 0.079681
0.454880 0.991352 0.149830
2.010016 0.889759 0.129730
2.047684 0.745451 0.119795
1.407094 0.496706 0.093599
2.034071 0.303870 0.160488
0.047603 0.854381 0.001759
1.282375 0.961835 0.223182
2.049422 0.718082 0.151819
0.714166 0.289339 0.242701
1.379300 0.980129 0.187327
2.022542 0.715620 0.181877
1.908552 0.962378 0.129658
2.010632 0.639137 0.200410
2.032977 0.238094 0.074622
2.000648 0.118576 0.122908
2.023587 0.621514 0.041745
2.021349 0.083507 0.064647
1.601928 0.057004 0.217805
0.843901 0.230207 0.238931
0.531019 0.286756 0.008081
0.816811 0.032531 0.031126
2.007880 0.710244 0.115067
0.362449 0.526525 0.008441
0.028181 0.129099 0.020662
2.001995 0.747523 0.166309
2.009973 0.935019 0.106858
2.032963 0.684623 0.203324
2.034140 0.855777 0.176953
0.022203 0.667211 0.223748
2.008327 0.295468 0.130869
0.086498 0.850497 0.002066
0.983282 0.342849 0.228755
2.014178 0.336587 0.209485
1.326366 0.920969 0.230978
1.841706 0.395854 0.037978
2.020040 0.916381 0.117455
1.721636 0.039043 0.166138
1.917358 0.230352 0.028059
2.033928 0.852710 0.179680
0.289513 0.992028 0.194694
2.009942 0.676050 0.191148
2.019976 0.708230 0.042371
0.242070 0.723481 0.001825
1.786457 0.324279 0.029582
2.031539 0.915199 0.125560
2.031289 0.095241 0.207983
2.018562 0.097872 0.154440
2.032726 0.151930 0.157049
1.325960 0.234199 0.023663
1.747978 0.971691 0.116018
2.012379 0.857800 0.088540
0.041160 0.652837 0.242299
1.652434 0.678162 0.028343
2.006516 0.709664 0.056035
2.006612 0.733044 0.069206
2.032027 0.708061 0.156368
2.047422 0.659033 0.158041
0.833536 0.167738 0.212899
2.008623 0.671327 0.150335
2.017950 0.932096 0.066731
2.000212 0.119345 0.120454
2.027649 0.788814 0.122788
0.806410 0.211398 0.240531
1.207068 0.984234 0.188102
2.037782 0.301018 0.135393
2.000514 0.077327 0.105807
2.037639 0.231862 0.074891
1.322577 0.794703 0.020153
2.043692 0.901627 0.126913
2.041219 0.688146 0.137356
2.000429 0.215780 0.041495
2.033186 0.327317 0.104475
0.192364 0.612383 0.250010
0.035416 0.562181 0.249222
2.044269 0.818918 0.199550
2.001223 0.848056 0.050231
2.017651 0.129320 0.202862
2.012521 0.233298 0.045845
0.367994 0.980826 0.173235
2.030091 0.839346 0.098504
2.033268 0.354557 0.077770
2.041484 0.819601 0.133527
2.016896 0.735843 0.177114
2.005133 0.350592 0.093012
2.030378 0.211665 0.125291
2.051344 0.818365 0.128576
2.023131 0.039322 0.115082
2.015030 0.096685 0.090606
2.042048 0.398850 0.188016
0.517161 0.910966 0.241667
2.022922 0.372593 0.103430
2.023228 0.730447 0.214347
2.016049 0.756633 0.040487
2.020701 0.649097 0.095229
2.010562 0.904400 0.171377
0.052259 0.992232 0.222086
1.391652 0.500023 0.069996
0.107635 0.042964 0.005668
1.863691 0.268086 0.212283
2.032231 0.932595 0.160442
2.006229 0.058657 0.123712
2.029796 0.721484 0.189331
1.686468 0.912371 0.027785
2.022575 0.188149 0.135854
2.017201 0.681083 0.191017
2.023163 0.803616 0.100864
2.016357 0.106732 0.037931
1.796228 0.140366 0.223238
0.023789 0.505364 0.220483
2.015481 0.887887 0.167531
2.012309 0.059204 0.149143
2.024290 0.352007 0.073397
2.044852 0.258797 0.047845
2.004841 0.367351 0.200467
2.018896 0.681016 0.127061
0.805817 0.989348 0.101448
0.915485 0.474039 0.233875
2.018782 0.639498 0.119193
2.033252 0.732225 0.044826
2.006809 0.305431 0.041686
2.020581 0.271387 0.143559
2.029636 0.772421 0.161292
1.066588 0.983768 0.192099
0.850033 0.012852 0.100645
2.030579 0.775512 0.178289
2.041007 0.276005 0.046258
2.000271 0.289912 0.039032
2.030297 0.105648 0.171593
2.008805 0.883220 0.211431
2.007401 0.237211 0.132114
2.043957 0.792899 0.145899
1.734518 0.964882 0.087930
1.617544 0.969478 0.173797
1.322792 0.021718 0.163421
1.887906 0.367107 0.034258
0.034891 0.566586 0.249774
1.524040 0.742487 0.226715
2.031014 0.717976 0.184907
1.772606 0.958353 0.176351
2.015580 0.844944 0.092940
2.035106 0.799893 0.114166
1.780082 0.120617 0.224297
2.022126 0.726487 0.178634
2.027879 0.840318 0.184213
2.017479 0.630500 0.093234
1.792928 0.041393 0.166815
0.753606 0.029141 0.168590
0.038459 0.987429 0.128891
2.017105 0.149523 0.065801
2.002765 0.755692 0.135449
2.009781 0.723187 0.218147
2.024452 0.367358 0.155246
2.029788 0.686933 0.179488
0.067607 0.987751 0.007815
2.043170 0.614473 0.123196
2.022747 0.721939 0.186483
2.054804 0.758295 0.109029
2.041637 0.681193 0.088195
1.993937 0.875224 0.042337
2.000926 0.300494 0.207650
1.975045 0.945599 0.173427
0.325675 0.024113 0.080666
2.026112 0.916278 0.087320
2.030630 0.922772 0.068881
0.038386 0.988906 0.137665
2.043955 0.337547 0.127159
1.021410 0.874583 0.237970
2.014167 0.830135 0.092786
2.021179 0.297030 0.060840
2.006074 0.222603 0.150129
2.012553 0.718654 0.076826
0.186789 0.879527 0.246044
2.014067 0.221852 0.075742
2.022074 0.220839 0.125137
1.621998 0.033418 0.157238
2.024098 0.190148 0.166427
2.000155 0.115994 0.036692
2.031926 0.750208 0.100893
2.032816 0.780082 0.070591
0.906150 0.927910 0.018316
2.036882 0.229357 0.050515
1.065459 0.016351 0.192019
2.032852 0.230892 0.118425
0.213421 0.165196 0.228206
2.019598 0.843053 0.176573
2.016902 0.101517 0.145640
0.759136 0.467369 0.242019
2.045287 0.712677 0.129932
2.035427 0.694947 0.126864
2.048916 0.864810 0.125488
2.001647 0.913888 0.124021
1.901460 0.092124 0.041978
2.035264 0.224157 0.103852
2.025508 0.345656 0.154944
2.035546 0.726023 0.059531
2.008734 0.276993 0.174787
0.181595 0.027981 0.024345
2.014314 0.785718 0.158959
2.022817 0.412694 0.057546
1.810148 0.120617 0.025311
2.027677 0.625261 0.106097
2.002812 0.754347 0.144586
1.943069 0.045452 0.127606
2.012800 0.666294 0.074063
0.906438 0.587609 0.014567
1.213801 0.011325 0.096289
2.001944 0.360681 0.203661
2.009621 0.190728 0.054982
0.040678 0.704947 0.241351
0.936877 0.718073 0.014382
2.037639 0.183166 0.137945
1.917543 0.054026 0.168221
0.602601 0.971918 0.215319
2.030415 0.333994 0.097299
2.005081 0.638313 0.035432
2.021489 0.647323 0.134533
1.491493 0.953845 0.207672
1.291820 0.065355 0.020169
2.012652 0.670691 0.207114
2.017824 0.348008 0.065318
2.038313 0.328636 0.190803
2.017192 0.772864 0.111412
1.280682 0.502023 0.054795
2.022265 0.669826 0.040038
0.722748 0.984889 0.160155
1.827756 0.104246 0.213403
1.566054 0.135473 0.024574
2.022459 0.678012 0.204441
2.005690 0.712882 0.141472
1.166521 0.993326 0.143598
2.000333 0.953181 0.117134
2.019636 0.910267 0.135929
1.507216 0.236501 0.228547
2.006319 0.572720 0.097924
0.035143 0.996318 0.048788
0.384755 0.796219 0.005570
0.574238 0.629806 0.212491
2.007652 0.682386 0.138880
0.480185 0.622514 0.238822
2.005989 0.126293 0.114610
2.008474 0.747795 0.153841
2.001298 0.857592 0.150809
2.025124 0.119820 0.148109
0.783217 0.358912 0.013212
2.039586 0.412706 0.106171
2.024485 0.316321 0.073033
1.186859 0.883690 0.233599
2.013345 0.882962 0.090390
0.036647 0.187915 0.013792
2.015784 0.275097 0.093220
2.010821 0.308547 0.173000
2.033909 0.289244 0.112282
2.042875 0.331086 0.077792
2.039336 0.339690 0.068817
2.034917 0.195737 0.108191
2.013953 0.922460 0.103780
2.027577 0.749487 0.077519
2.000638 0.887062 0.082849
2.043238 0.860607 0.086299
2.022557 0.107515 0.035134
2.012521 0.933139 0.107317
2.021264 0.348509 0.201991
1.971382 0.176274 0.031317
2.036560 0.107947 0.066608
0.101276 0.964180 0.239236
2.018576 0.840891 0.076544
1.735410 0.791827 0.030331
2.025381 0.883073 0.216368
2.003428 0.277166 0.164066
2.040073 0.728954 0.132857
1.195266 0.247301 0.219689
1.464598 0.045115 0.034267
2.013732 0.699957 0.037390
2.038919 0.091718 0.151174
2.007386 0.174686 0.037130
2.010286 0.565693 0.109033
0.959957 0.416214 0.228216
1.585497 0.610932 0.182482
2.010992 0.147421 0.096275
2.023444 0.832276 0.209149
2.038118 0.748146 0.141266
2.007447 0.660923 0.215475
2.007343 0.252245 0.045028
2.038461 0.336184 0.102265
2.032140 0.948573 0.123652
1.616716 0.098953 0.029940
1.982507 0.932989 0.071180
2.036578 0.240857 0.056613
0.945943 0.436172 0.016680
2.019009 0.931509 0.079621
2.026656 0.128085 0.135971
2.011742 0.078111 0.152927
0.087210 0.510016 0.233001
2.005825 0.296214 0.042500
1.466375 0.170833 0.233628
2.020640 0.930446 0.117839
2.012230 0.680055 0.167305
2.024435 0.735181 0.039485
2.025570 0.769084 0.186028
2.012501 0.643426 0.035387
0.696381 0.986393 0.197278
0.039370 0.426980 0.015645
2.002534 0.716035 0.146029
0.029679 0.373609 0.240951
1.588295 0.046015 0.038506
2.028122 0.221336 0.119898
2.000288 0.313538 0.179206
0.013284 0.514368 0.241262
0.950768 0.300864 0.230586
0.997958 0.022305 0.042253
2.023364 0.091646 0.073414
0.007811 0.605221 -0.000325
2.022095 0.088833 0.073625
2.023175 0.607116 0.038665
2.028521 0.663280 0.028983
0.011204 0.278709 0.236011
2.048770 0.749451 0.090866
2.029164 0.787634 0.187305
1.751440 0.597187 0.038381
2.001214 0.102727 0.166548
1.348515 0.981160 0.065359
0.621468 0.126546 0.025879
2.016937 0.339622 0.074967
0.018953 0.890552 0.250145
2.000588 0.799573 0.125313
2.018788 0.585346 0.066433
2.010143 0.602290 0.201903
2.028930 0.271324 0.174884
2.010875 0.104483 0.044686
0.261596 0.982218 0.216909
2.026492 0.348990 0.140628
1.600466 0.930110 0.226002
2.033815 0.595950 0.076129
0.245196 0.010061 0.209121
2.031101 0.930411 0.137363
2.004660 0.865858 0.205160
2.002627 0.901958 0.043426
2.025588 0.792722 0.125310
2.036936 0.079405 0.138733
1.334537 0.974728 0.204741
2.006244 0.790524 0.087015
0.754747 0.023629 0.040412
0.589932 0.020353 0.164161
1.364653 0.259584 0.062893
0.016998 0.747338 0.010732
2.007610 0.172173 0.078813
2.007702 0.234239 0.216311
1.289205 0.492874 0.055948
0.567742 0.534151 0.228796
2.020352 0.301361 0.168629
1.970493 0.876762 0.036319
2.054257 0.245705 0.112442
1.143079 0.483496 0.107169
2.005327 0.901170 0.181384
1.955827 0.130815 0.215497
2.014286 0.350295 0.187820
2.016464 0.939830 0.139259
2.040402 0.096788 0.101012
2.001294 0.107314 0.184666
0.830386 0.028990 0.213994
2.038295 0.102904 0.177095
2.025195 0.408903 0.144709
1.597221 0.971609 0.088041
2.020001 0.799353 0.160508
2.012249 0.715509 0.135389
0.994050 0.995130 0.090077
0.034259 -0.000089 0.183998
2.032238 0.901429 0.052711
0.662553 0.482544 0.008506
2.047931 0.313367 0.104281
2.023425 0.371297 0.189176
2.033696 0.125638 0.135117
1.888180 0.677464 0.028435
2.009439 0.111121 0.210674
0.150459 0.986215 0.021289
2.001362 0.282336 0.081177
1.612766 0.302278 0.220325
2.016776 0.724579 0.168284
0.013899 0.012194 0.084745
2.007751 0.161367 0.097244
0.352418 0.958811 0.016417
2.021828 0.925834 0.076102
1.781211 0.085135 0.207808
2.012108 0.659642 0.207532
2.023007 0.116935 0.149028
2.001221 0.669073 0.192203
2.049318 0.245117 0.121517
1.922809 0.402278 0.209933
2.014259 0.206345 0.053412
1.906798 0.059844 0.172570
0.436956 0.989074 0.168498
2.017891 0.273142 0.089601
1.597574 0.056368 0.031951
2.001818 0.350240 0.144337
2.018226 0.826991 0.177203
1.309896 0.504819 0.191978
2.040798 0.271093 0.087862
2.039047 0.789668 0.048091
0.988689 0.064832 0.018666
1.581971 0.932263 0.219419
2.010548 0.695931 0.089083
2.015575 0.353923 0.199898
2.014640 0.582777 0.057398
2.024173 0.282589 0.075697
1.885836 0.702816 0.225622
2.025903 0.091580 0.162508
2.039833 0.740614 0.110457
2.045441 0.386358 0.068500
1.171563 0.018579 0.194659
2.035768 0.751377 0.149175
2.021132 0.167951 0.105210
2.030107 0.426089 0.134212
0.915456 0.610172 0.016663
2.017631 0.345764 0.201357
2.033975 0.332578 0.095046
2.024310 0.858399 0.143123
1.575669 0.255596 0.025488
2.036353 0.070023 0.119429
2.006043 0.826376 0.044697
2.033033 0.715423 0.127692
2.040083 0.091923 0.085418
2.023243 0.436303 0.110260
2.038732 0.267869 0.046259
2.022422 0.186151 0.198259
2.029531 0.103716 0.205389
2.015052 0.920555 0.112129
0.345182 0.617588 0.003078
0.175295 0.684467 0.247421
2.017961 0.096528 0.184175
2.003892 0.262647 0.030832
2.024277 0.380779 0.080066
0.551664 0.645029 0.012306
2.000152 0.715168 0.043558
1.954225 0.292016 0.218944
2.019767 0.325567 0.131726
2.010451 0.114133 0.153634
2.014853 0.372002 0.213192
0.682113 0.023285 0.039947
2.018938 0.868010 0.039757
2.008738 0.657800 0.178482
0.041187 0.572458 0.013946
1.181002 0.752996 0.224179
1.771333 0.037044 0.162223
1.644595 0.056731 0.214724
2.024197 0.296343 0.159639
1.677682 0.753864 0.021861
2.003979 0.189402 0.181230
0.047646 0.852974 -0.000133
1.863449 0.861760 0.221418
0.334262 0.953364 0.011571
0.150103 0.003928 0.208245
2.007821 0.839730 0.099613
2.028238 0.101937 0.203735
0.028416 0.374824 0.239251
1.961505 0.886330 0.037391
2.033046 0.667468 0.200239
1.387799 0.505224 0.127114
0.066581 0.939624 0.002734
2.017117 0.290534 0.208101
0.018170 0.388619 0.245732
2.042207 0.866436 0.076275
1.598143 0.960446 0.052493
2.005977 0.763890 0.090744
1.285119 0.495908 0.054970
1.542333 0.965533 0.052362
2.019777 0.409893 0.057595
2.007231 0.605300 0.202884
2.003610 0.932416 0.091151
2.013677 0.949706 0.108499
0.908283 0.982148 0.072027
0.815741 0.013398 0.056209
1.389301 0.019549 0.177878
2.019279 0.075744 0.157400
2.007864 0.166258 0.184835
2.007855 0.119610 0.200900
2.033492 0.829768 0.188287
2.009141 0.738372 0.125480
</DataArray>
</Points>
<PointData>
<DataArray NumberOfComponents='1' type='Int32' Name='ParticleType' format='ascii'>
1
1
1
1
1
1
1
1
1
1
1
1
1
1
1
1
1
1
1
1
1
1
1
1
1
1
1
1
1
1
1
1
1
1
1
1
1
1
1
1
1
1
1
1
1
1
1
1
1
1
1
1
1
1
1
1
1
1
1
1
1
1
1
1
1
1
1
1
1
1
1
1
1
1
1
1
1
1
1
1
1
1
1
1
1
1
1
1
1
1
1
1
1
1
1
1
1
1
1
1
1
1
1
1
1
1
1
1
1
1
1
1
1
1
1
1
1
1
1
1
1
1
1
1
1
1
1
1
1
1
1
1
1
1
1
1
1
1
1
1
1
1
1
1
1
1
1
1
1
1
1
1
1
1
1
1
1
1
1
1
1
1
1
1
1
1
1
1
1
1
1
1
1
1
1
1
1
1
1
1
1
1
1
1
1
1
1
1
1
1
1
1
1
1
1
1
1
1
1
1
1
1
1
1
1
1
1
1
1
1
1
1
1
1
1
1
1
1
1
1
1
1
1
1
1
1
1
1
1
1
1
1
1
1
1
1
1
1
1
1
1
1
1
1
1
1
1
1
1
1
1
1
1
1
1
1
1
1
1
1
1
1
1
1
1
1
1
1
1
1
1
1
1
1
1
1
1
1
1
1
1
1
1
1
1
1
1
1
1
1
1
1
1
1
1
1
1
1
1
1
1
1
1
1
1
1
1
1
1
1
1
1
1
1
1
1
1
1
1
1
1
1
1
1
1
1
1
1
1
1
1
1
1
1
1
1
1
1
1
1
1
1
1
1
1
1
1
1
1
1
1
1
1
1
1
1
1
1
1
1
1
1
1
1
1
1
1
1
1
1
1
1
1
1
1
1
1
1
1
1
1
1
1
1
1
1
1
1
1
1
1
1
1
1
1
1
1
1
1
1
1
1
1
1
1
1
1
1
1
1
1
1
1
1
1
1
1
1
1
1
1
1
1
1
1
1
1
1
1
1
1
1
1
1
1
1
1
1
1
1
1
1
1
1
1
1
1
1
1
1
1
1
1
1
1
1
1
1
1
1
1
1
1
1
1
1
1
1
1
1
1
1
1
1
1
1
1
1
1
1
1
1
1
1
1
1
1
1
1
1
1
1
1
1
1
1
1
1
1
1
</DataArray>
<DataArray NumberOfComponents='1' type='Int32' Name='ParticleID' format='ascii'>
0
1
2
3
4
5
6
7
8
9
10
11
12
13
14
15
16
17
18
19
20
21
22
23
24
25
26
27
28
29
30
31
32
33
34
35
36
37
38
39
40
41
42
43
44
45
46
47
48
49
50
51
52
53
54
55
56
57
58
59
60
61
62
63
64
65
66
67
68
69
70
71
72
73
74
75
76
77
78
79
80
81
82
83
84
85
86
87
88
89
90
91
92
93
94
95
96
97
98
99
100
101
102
103
104
105
106
107
108
109
110
111
112
113
114
115
116
117
118
119
120
121
122
123
124
125
126
127
128
129
130
131
132
133
134
135
136
137
138
139
140
141
142
143
144
145
146
147
148
149
150
151
152
153
154
155
156
157
158
159
160
161
162
163
164
165
166
167
168
169
170
171
172
173
174
175
176
177
178
179
180
181
182
183
184
185
186
187
188
189
190
191
192
193
194
195
196
197
198
199
200
201
202
203
204
205
206
207
208
209
210
211
212
213
214
215
216
217
218
219
220
221
222
223
224
225
226
227
228
229
230
231
232
233
234
235
236
237
238
239
240
241
242
243
244
245
246
247
248
249
250
251
252
253
254
255
256
257
258
259
260
261
262
263
264
265
266
267
268
269
270
271
272
273
274
275
276
277
278
279
280
281
282
283
284
285
286
287
288
289
290
291
292
293
294
295
296
297
298
299
300
301
302
303
304
305
306
307
308
309
310
311
312
313
314
315
316
317
318
319
320
321
322
323
324
325
326
327
328
329
330
331
332
333
334
335
336
337
338
339
340
341
342
343
344
345
346
347
348
349
350
351
352
353
354
355
356
357
358
359
360
361
362
363
364
365
366
367
368
369
370
371
372
373
374
375
376
377
378
379
380
381
382
383
384
385
386
387
388
389
390
391
392
393
394
395
396
397
398
399
400
401
402
403
404
405
406
407
408
409
410
411
412
413
414
415
416
417
418
419
420
421
422
423
424
425
426
427
428
429
430
431
432
433
434
435
436
437
438
439
440
441
442
443
444
445
446
447
448
449
450
451
452
453
454
455
456
457
458
459
460
461
462
463
464
465
466
467
468
469
470
471
472
473
474
475
476
477
478
479
480
481
482
483
484
485
486
487
488
489
490
491
492
493
494
495
496
497
498
499
</DataArray>
<DataArray NumberOfComponents='1' type='Int8' Name='IsActive' format='ascii'>
1
0
1
0
0
1
0
0
1
1
1
1
1
1
0
0
0
0
1
0
0
1
0
1
0
0
1
0
1
1
0
1
1
0
1
0
0
0
0
0
1
1
1
1
0
1
1
0
0
0
0
1
0
1
1
0
1
1
0
1
1
0
1
0
0
1
1
0
0
0
0
1
1
0
1
1
0
0
0
0
1
0
0
0
0
1
1
0
0
0
1
0
0
0
0
0
1
0
0
0
0
1
0
0
0
0
0
0
0
0
0
0
1
0
0
0
0
0
1
1
1
1
0
0
0
1
0
0
0
0
1
1
0
0
0
0
0
0
1
1
0
0
0
0
0
1
1
0
0
0
0
0
0
0
1
1
1
1
1
1
0
1
0
0
1
0
0
0
1
1
1
0
0
1
0
0
1
0
0
0
0
1
0
1
1
0
0
1
0
1
0
0
0
0
1
0
0
1
0
0
0
0
1
0
1
0
1
0
0
1
0
0
0
0
1
0
0
0
0
1
0
0
1
0
0
1
0
1
1
0
0
1
1
0
1
1
0
1
0
1
1
0
0
0
0
1
0
1
1
1
0
0
1
1
0
1
0
1
1
1
0
1
0
0
0
0
1
0
0
1
0
1
0
0
0
0
0
0
0
0
0
0
0
0
0
1
0
1
0
1
0
0
0
1
1
0
0
0
0
1
1
0
0
0
0
0
0
0
1
1
0
1
0
0
0
1
0
1
0
0
0
0
0
1
1
0
1
1
0
0
1
1
1
0
0
0
0
0
1
0
0
1
0
1
1
0
0
0
0
0
0
0
1
0
1
0
1
0
0
0
0
0
1
0
1
1
1
1
0
0
1
1
0
1
0
1
0
1
0
0
0
0
1
0
0
1
0
0
1
0
0
1
0
0
0
1
0
1
0
1
0
1
0
1
0
1
0
0
0
0
1
0
1
1
0
1
0
0
1
0
0
1
1
0
0
0
0
1
0
0
0
1
0
0
0
1
0
0
0
1
0
0
0
0
0
0
0
0
0
1
1
0
0
0
1
0
1
0
0
0
1
0
0
1
1
1
1
0
1
0
0
1
1
1
0
0
1
1
0
1
1
0
1
0
1
0
1
1
0
0
0
0
1
1
1
0
0
0
0
0
</DataArray>
<DataArray NumberOfComponents='1' type='Int32' Name='ParticleTetID' format='ascii'>
83080
-50400
49067
-69862
-102510
41397
-69112
-82730
49526
77158
90621
45652
60863
100665
-82225
-93293
-91090
-74058
46043
-98831
-12127
66097
-98411
53079
-93293
-102840
10515
-91191
100560
88127
-34180
42214
90772
-39168
322
-81615
-69112
-42296
-100758
-96731
18095
76563
64219
56891
-90119
9458
94294
-93119
-79211
-82225
-90337
80251
-25302
76283
65355
-96944
89386
25816
-27681
34707
67751
-90337
20471
-57434
-90680
72893
20200
-27681
-44138
-104925
-80727
74431
82837
-96019
80251
64982
-75610
-98411
-34180
-57434
43914
-57434
-89958
-42296
-102510
12203
39841
-50400
-98306
-69112
47432
-93293
-104802
-99907
-83399
-79063
99903
-90337
-79597
-82515
-90622
77068
-96019
-58762
-86274
-93119
-58762
-98765
-86274
-97395
-96731
-44272
88248
-24526
-82225
-92602
-87306
-96325
98699
25148
82439
95239
-74058
-98831
-39168
71870
-98765
-39168
-17626
-96893
70519
39943
-96325
-104925
-58762
-64130
-96944
-104802
88101
5695
-95998
-92602
-88016
-12127
-70156
88295
90489
-70156
-92373
-88016
-44138
-105710
-83215
-102510
83967
53162
103681
86271
99903
29062
-39168
93948
-96019
-17626
100114
-39168
-90337
-74393
55180
60897
97137
-87514
-102840
-82225
-93819
-39168
99809
-96354
-39168
-102840
-91248
105530
-91090
74057
69034
-89958
-89958
97137
-96849
76160
-96019
-92373
-85990
-91248
95611
-69112
-83215
73246
-85990
-96893
-102840
-83820
66230
-64130
98720
-83215
6387
-90337
-98831
91755
-34180
-104802
-98210
-27681
61701
-69112
-98308
-91248
-61396
92108
-70156
-46315
94747
-74393
-102840
51507
-82524
81960
91606
-96944
-70433
69970
61292
-99021
55908
86824
-83399
-90231
-104802
105707
93390
-81615
-58762
-98308
-102510
10755
-90231
47739
91963
82412
-82225
-34180
59278
-90339
-27681
36590
-84540
99980
16632
31115
-104802
80655
-42296
-93119
-98210
-42296
69501
-90131
-83399
35064
-96019
85474
-94130
-91191
-25302
-83399
-58762
-99021
-79211
-98411
-48492
-96019
-96893
-79211
-96944
33676
-100353
93306
-96019
93852
-105710
-61396
-34180
51697
75922
-90680
-98831
-70433
-100422
14539
5949
-24687
-82730
-102840
-81615
-90622
-83399
-27681
65926
89957
-64130
1218
-89958
-42296
-104925
74716
-88016
89536
-27681
-57434
-92602
-94146
-90231
20335
74099
-34180
101063
104573
-83215
-91191
100092
38441
100302
-96731
-101355
-96731
-104379
-90231
98826
-98411
-94146
16745
-44138
87050
80723
-58762
-71594
-17626
-25092
-78226
-61396
-96893
91618
-96849
68037
-25092
66943
-27681
-99052
-105531
-17626
-98831
104487
-83820
47309
53426
24336
100743
-56272
-82325
18794
33795
-91191
14742
-83215
43045
-96325
12505
-98308
-43214
-98306
-44138
103849
-44138
-19405
102671
-70156
-34180
81210
-101044
-48492
67699
-94130
-98308
-42296
57859
-82515
101296
-94130
74859
-93119
101509
-24687
73259
-89958
71027
-81615
-42296
-42146
-83215
47030
-70433
32609
77591
-94130
104574
-99096
-69862
10458
-94130
-99911
86788
91345
-91248
-96944
-25092
-92373
100615
-104925
-102840
-24526
99501
-102840
-24687
-19405
104920
-96944
-83399
-98210
7372
-98831
-79597
-34180
-96731
-69914
-92373
-99721
-44138
-27681
53417
78397
-44138
-101289
-24526
11682
-90680
95160
-50400
-42296
-96944
44600
-105531
-42146
88021
39865
63330
40537
-95447
56982
-99721
-100561
96727
73259
100376
-96019
-44138
101063
14742
-42146
19444
99121
-91090
101063
-96019
4491
-98411
24966
32528
-46315
-78226
-79211
-79211
68541
93067
105961
-104925
-99721
-44138
-90337
-102840
</DataArray>
<DataArray NumberOfComponents='3' type='Float32' Name='vels' format='ascii'>
7.062284 -2.554763 -0.004781
22.746117 0.571945 -0.290697
0.290643 -0.001195 -0.000019
20.081773 -0.217840 -0.277921
23.484112 -0.510887 0.083072
1.230967 -0.012033 -0.000438
20.333378 0.277334 -0.621174
12.783111 0.221707 0.073535
7.877783 -2.213682 0.014024
8.411074 -1.550213 -0.000054
-0.021930 0.014775 0.057758
1.162873 -0.002960 -0.000900
7.813463 -6.061731 -0.019196
5.698563 -1.758862 0.001864
13.642843 -0.263199 -0.225210
20.644419 -0.244898 0.011251
14.087736 0.281257 1.252631
14.293141 1.904616 0.878634
11.582195 -2.066308 0.009525
19.044396 -1.244907 -0.238396
21.835456 0.067503 1.640637
10.284683 -0.110418 0.015325
20.051412 -0.328575 -0.076616
2.341156 0.001423 0.005198
18.297037 -0.214221 0.115799
22.591256 -0.226395 0.244628
7.279810 -0.156542 0.071819
21.418610 0.522880 0.667956
0.273080 0.052255 -0.021275
9.314053 0.014240 0.033187
22.058982 -0.221339 0.905368
2.568440 -0.426267 0.002627
10.795357 -0.047338 0.028615
19.420937 -0.419907 0.689956
9.340983 -0.171488 0.016634
9.873437 -0.276749 0.223623
19.690416 0.183231 -1.354405
17.262796 -0.581290 -0.236368
13.020581 -0.450925 -1.719911
13.718675 -1.653544 -1.157650
12.001270 0.673207 0.014088
13.987408 -4.864876 0.002380
2.799840 -0.201204 0.000691
5.732367 -0.138910 -0.073372
23.253517 -0.506630 -0.243077
3.040834 0.024576 0.000238
-0.140360 0.001919 -0.000728
21.234953 -0.478901 -0.021576
16.783738 0.725048 0.022270
15.336051 -0.375124 2.450828
15.641460 0.592641 2.478244
0.176122 -0.026968 0.013279
23.583462 0.705706 0.031841
12.496885 -0.318980 -0.275693
2.279706 -4.841440 0.188536
12.898903 0.342379 1.238865
11.678371 -0.026941 -0.025591
14.539649 1.726499 0.042149
16.294222 1.334800 -0.294998
12.860055 0.758888 -0.122757
13.931790 0.943196 0.091994
15.971599 0.661878 2.362355
1.657123 0.001515 -0.006064
16.469972 -0.440812 0.460427
8.803361 -0.053175 -1.230980
0.633505 0.005583 -0.000184
4.417756 0.857079 0.007964
16.358776 2.099030 -0.512324
13.698757 -1.440865 2.243215
12.106804 0.099396 -0.173926
20.829917 -0.376475 0.351593
11.347615 -1.962691 -0.108063
8.506997 -0.216872 0.031011
21.624399 0.251894 -0.102345
-0.160960 0.003926 0.000460
11.987429 -7.141020 0.002497
18.270654 -0.489875 0.186874
16.029687 -0.488661 0.199500
22.453575 -0.519201 0.546982
20.858756 -0.561026 1.745228
14.346762 -2.855380 0.038292
22.318605 -0.637696 0.060034
12.451290 1.606906 -1.239628
17.872999 -0.508012 -0.210598
21.544261 -0.576351 -0.237666
3.680017 -0.930936 -0.002178
8.072941 0.010375 0.046872
22.850020 0.504740 0.291769
16.743318 -0.167094 -0.066923
20.405083 0.175823 -1.416689
12.859120 0.975144 -0.042271
18.397170 2.312845 0.926571
22.928140 -0.721532 0.020940
1.092060 -0.057378 -0.099089
21.674624 0.629290 -1.020716
0.117633 0.000420 0.000014
0.058360 0.025126 0.016610
18.277976 1.459873 2.053854
15.193783 -0.200755 0.411678
8.382616 -1.056661 1.118900
9.911597 0.030293 -0.531683
3.682141 0.002934 0.010122
16.604183 0.954922 -1.554912
16.518350 0.455337 -2.328386
22.200797 0.725471 -0.532589
19.328759 -0.349707 0.354440
19.388330 0.531497 -1.176200
23.505890 -0.017541 0.011079
21.587448 0.974728 -0.641169
9.527705 -1.530749 -0.112747
16.482712 -1.531327 -0.673981
20.251569 0.364379 1.295825
2.125006 0.066947 -0.000508
22.036278 0.624905 -0.469285
14.124127 -0.284270 -0.217126
10.498283 -0.075992 -0.761585
21.786999 -0.601339 -0.143358
14.298232 0.925327 0.629781
0.337490 0.000690 -0.003564
7.944738 0.005544 0.020737
1.502997 -0.011418 -0.005505
11.787203 1.312504 -0.037238
14.099799 2.576252 1.169191
13.357897 -0.648771 -0.039844
17.437643 -0.326126 1.677305
9.120339 -0.932243 0.023270
23.130137 -0.019389 0.136113
16.798710 -0.409249 0.846982
21.975496 -0.398811 0.347033
11.426230 -1.001875 -1.211797
9.134730 1.029199 -0.004048
6.110294 -0.055991 -0.509899
17.775444 0.811653 0.366037
14.614608 -2.401172 0.802102
16.323602 0.461840 -1.527500
20.101702 0.219511 -1.888051
10.340887 0.260235 0.538024
23.078656 -0.988561 -0.027553
3.903717 0.058310 0.008690
1.762356 -0.472122 0.008085
22.910553 -0.665074 -0.024346
15.478941 0.434950 -2.683764
3.843808 0.025786 -0.011749
23.086697 0.462772 0.127130
20.097993 -0.001831 0.998274
9.651249 0.129009 0.044820
4.868208 -0.062099 -0.024855
21.604291 0.016050 0.594368
20.440455 0.307652 -1.507826
3.309534 0.025848 -0.069147
16.746200 -1.534288 1.226030
10.253146 0.947459 1.119102
23.785807 0.531745 -0.031865
21.848852 0.420922 0.793156
10.704712 -0.357080 0.083042
9.632622 -0.342181 -0.047875
20.542314 -0.056728 0.082943
15.938132 1.328605 0.090794
-0.073325 0.000867 0.010795
11.508289 -6.362884 -0.039098
17.330247 -0.352344 1.789258
10.345932 -0.302981 0.024249
19.581049 0.422816 -0.371368
23.074533 -0.332614 -0.039117
8.403035 0.796751 -0.001838
16.564731 -0.331065 1.203524
19.095386 0.410807 1.106184
21.597133 -0.714607 0.164443
10.156407 0.332345 -0.109880
7.879064 -0.162008 0.050078
0.163435 -0.009495 -0.005055
18.889380 -0.021748 0.028150
23.744358 -0.623742 0.078356
6.083785 -0.114745 0.693848
21.550093 0.597724 0.177560
19.931805 -0.620684 -0.104144
0.322433 0.004335 -0.001049
22.186483 -0.580909 0.085191
18.532700 -0.364004 0.898198
22.731125 -0.410106 -0.267865
16.903104 -0.287756 -3.000994
5.482997 0.161970 0.073869
14.810948 0.363075 0.196271
10.413859 0.076099 0.035463
4.922944 -0.019642 -0.027900
15.925088 1.660978 -1.064572
13.425174 2.439846 -1.661108
0.059046 -0.001753 -0.008803
22.474392 0.693944 0.051149
22.300693 6.240185 0.020483
16.990761 0.499263 -0.526326
17.556272 0.387056 -1.088772
22.424382 0.267650 -0.125181
19.438241 -0.645570 0.307630
1.055809 0.003699 -0.001561
19.790404 0.145941 -0.245545
23.805036 0.246133 -0.090822
19.248813 1.407809 -0.081455
17.974424 -0.188307 1.097113
11.220117 -0.667190 -0.338685
22.916248 -0.253452 -0.514480
18.818351 0.349067 -1.391396
6.948205 0.637957 -0.005045
15.899244 0.166904 -2.510908
8.845358 -0.077893 0.057386
23.480659 0.156312 -0.174877
3.479676 -0.032903 0.005120
18.643998 0.568643 0.689326
18.384430 -0.878138 0.303210
2.149142 -0.029839 -0.000140
23.583081 -0.560089 0.024302
23.161558 -0.767744 -0.045548
20.291565 1.561776 -0.694303
16.401910 -0.321120 -0.053734
9.565801 0.322431 0.049194
21.410000 0.626257 0.310330
18.442322 0.652253 -0.220620
17.690202 -0.279277 -2.290119
18.769647 0.377517 0.667154
0.327716 0.000580 0.000655
17.750980 -0.020871 0.508239
17.540848 0.458101 -1.060460
8.478094 0.854696 0.005345
20.417662 -0.645471 0.231195
23.602854 -0.615112 0.038929
12.325869 0.255856 0.037937
18.576584 -0.501876 -0.358508
1.892371 1.394383 -0.007267
7.110512 -0.002944 -0.027870
13.702585 0.396953 0.289287
6.917325 -0.024386 0.013341
-0.049025 -0.033151 0.007398
7.672663 5.830401 -0.009441
21.328316 0.562810 0.238438
11.106707 0.293270 -0.065671
3.912812 0.045316 0.015451
22.195289 0.732663 -0.247530
2.252395 -0.033993 0.023985
22.344953 -0.609651 0.782143
14.408152 -0.664003 -0.143214
12.284766 -0.128817 -0.041561
15.872573 -0.624415 -0.376809
21.407858 0.824238 0.337188
17.297617 0.488402 2.433505
23.606339 -0.372745 -0.031862
2.868514 -0.003985 -0.149676
13.166489 -0.210343 -1.750043
3.824118 0.030908 0.017546
4.741282 0.286761 -0.003033
12.277219 2.652832 0.017559
14.328609 -0.354769 1.438157
21.838368 -0.661170 -0.191753
5.041914 0.042299 -0.046296
1.967034 -0.040918 -0.033000
15.580226 -0.323972 0.093963
12.418608 5.313183 -0.025007
21.053992 -0.422851 0.024730
0.020067 0.001536 0.045320
1.999215 0.034250 0.001571
9.874663 0.552746 0.002195
23.244983 -0.730652 -0.131282
18.107613 0.347526 -0.001289
20.722970 -0.207133 -0.102217
22.750940 -0.531753 0.033055
20.545453 -0.083357 -0.102342
20.285490 -0.903266 0.046184
3.805437 -1.169039 0.003034
21.801124 0.497681 -0.757091
19.879728 0.548398 -0.714806
12.353277 0.114317 0.003373
18.274489 0.518023 -0.272507
0.022381 0.004390 -0.007037
22.049778 0.519534 -0.195881
19.783170 0.573937 0.196976
23.087101 0.531150 0.110178
20.744513 0.554739 -1.416790
18.689961 0.464014 -2.153891
22.952633 -0.348073 -0.012363
15.385875 1.081334 -0.018862
20.312842 -0.228192 -0.737240
18.555870 0.457150 -0.153506
18.423548 1.307541 -2.021391
10.524621 -1.063843 -1.645949
16.597472 0.870109 0.031602
13.153952 0.251382 1.635128
10.111622 0.076979 0.273407
15.862789 -1.859636 -1.900831
0.337684 -0.000069 -0.000869
20.159521 0.339274 -0.414015
10.233873 -2.148159 0.005268
12.441263 0.840484 0.891875
21.204620 0.562607 -0.004813
21.937366 -0.464106 0.805875
14.383737 1.936337 -0.200041
15.291331 0.450063 0.035968