<VTKFile type='UnstructuredGrid' version='1.0' byte_order='LittleEndian' header_type='UInt64'>
<UnstructuredGrid>
<Piece NumberOfCells='500' NumberOfPoints='500'>
<Points>
<DataArray NumberOfComponents='3' type='Float32' Name='Position' format='ascii'>
0.184346 0.612199 0.226426
0.350639 0.396808 0.116732
0.045615 0.980066 0.222717
0.231265 0.768051 0.184986
0.343950 0.739818 0.105923
0.047623 0.191434 0.247839
0.288861 0.300814 0.073824
0.154726 0.792762 0.208715
0.189385 0.614070 0.225318
0.150101 0.766897 0.226132
0.129460 0.249362 0.035292
0.033695 0.005130 0.057796
0.176455 0.540822 0.218917
0.088297 0.255260 0.236856
0.165485 0.689993 0.214224
0.275269 0.883720 0.149863
0.170211 0.325628 0.203977
0.161831 0.927263 0.160752
0.015461 0.794982 0.219288
0.276381 0.116628 0.112953
0.340369 0.282772 0.145044
0.016217 0.097526 0.236511
0.298309 0.691977 0.078789
0.038932 0.992004 0.150521
0.292265 0.877255 0.131364
0.338686 0.692105 0.119359
0.339322 0.500024 0.099991
0.334259 0.366514 0.159981
0.031055 0.846066 0.003327
0.102051 0.935521 0.217979
0.352591 0.663474 0.151911
0.078897 0.312040 0.242605
0.108064 0.959691 0.185044
0.180910 0.632848 0.181110
0.150325 0.954644 0.127482
0.227881 0.587998 0.202174
0.284303 0.294913 0.077949
0.292602 0.141992 0.123219
0.134638 0.567463 0.046338
0.199788 0.096318 0.068705
0.130909 0.092819 0.215787
0.083826 0.291949 0.238445
0.067242 0.293425 0.006257
0.069826 0.040912 0.033032
0.365955 0.639712 0.115727
0.046131 0.525839 0.007656
0.026766 0.124358 0.022328
0.326421 0.693415 0.165972
0.166847 0.927938 0.106963
0.210012 0.638181 0.198650
0.276145 0.846161 0.171908
0.019549 0.670158 0.220934
0.365778 0.371405 0.131636
0.031351 0.846918 0.004133
0.126389 0.478177 0.227871
0.100397 0.392997 0.206974
0.089689 0.854287 0.230886
0.203603 0.458645 0.040088
0.256156 0.905273 0.120650
0.090981 0.048845 0.164414
0.136634 0.254943 0.027629
0.277939 0.829765 0.174081
0.047137 0.993779 0.192441
0.263188 0.604973 0.188567
0.184732 0.647699 0.043289
0.045191 0.723392 0.004523
0.029093 0.389481 0.030728
0.284099 0.895447 0.128385
0.145238 0.108781 0.204223
0.262535 0.113065 0.156148
0.293459 0.182620 0.158435
0.156240 0.467789 0.026311
0.147114 0.960412 0.113601
0.295338 0.839140 0.088386
0.041690 0.652933 0.243539
0.045923 0.578402 0.030353
0.222156 0.663086 0.056205
0.259517 0.685276 0.068544
0.341118 0.627352 0.155607
0.333879 0.572275 0.150238
0.013040 0.207278 0.215987
0.347207 0.595903 0.150410
0.214162 0.906616 0.069534
0.308608 0.139629 0.120525
0.356243 0.749833 0.122004
0.083838 0.256590 0.238559
0.070054 0.964242 0.185047
0.347272 0.399172 0.134110
0.217555 0.090690 0.104925
0.306027 0.277285 0.077621
0.134858 0.584535 0.020909
0.284444 0.884222 0.123777
0.362650 0.623460 0.136943
0.124983 0.250281 0.039758
0.346536 0.413260 0.106185
0.044814 0.613565 0.248742
0.011704 0.555450 0.248967
0.266588 0.774641 0.193828
0.176021 0.832470 0.049239
0.139012 0.148938 0.201673
0.213881 0.254636 0.047269
0.016759 0.985061 0.179889
0.337771 0.791630 0.102088
0.335572 0.423125 0.084183
0.337112 0.780024 0.133767
0.304002 0.692824 0.176908
0.353409 0.434212 0.096565
0.345594 0.264158 0.124868
0.334572 0.776870 0.128673
0.134962 0.053412 0.117045
0.287743 0.129221 0.091484
0.311964 0.467455 0.179480
0.037060 0.908162 0.241041
0.350741 0.448957 0.103449
0.172218 0.690709 0.215413
0.200039 0.702447 0.041816
0.341193 0.572876 0.097677
0.252095 0.872764 0.171359
0.019760 0.992667 0.223724
0.323666 0.498808 0.080852
0.020067 0.041157 0.006632
0.124969 0.323489 0.213801
0.167867 0.923840 0.155530
0.229998 0.080646 0.124445
0.150447 0.652441 0.186565
0.136842 0.897196 0.029390
0.336642 0.217737 0.135432
0.231807 0.622932 0.192338
0.339318 0.753700 0.099676
0.158702 0.124767 0.038389
0.177000 0.171174 0.226161
0.015159 0.502164 0.223761
0.285486 0.860255 0.166893
0.224877 0.071271 0.150248
0.337300 0.433423 0.078730
0.224621 0.315170 0.053238
0.237181 0.437237 0.197296
0.351493 0.613890 0.126027
0.066872 0.984119 0.099761
0.128416 0.491342 0.235281
0.361785 0.566195 0.122695
0.217996 0.693061 0.051614
0.205321 0.357582 0.039603
0.347547 0.339094 0.144132
0.328042 0.721818 0.158818
0.066182 0.968123 0.190053
0.082350 0.019490 0.101813
0.285512 0.723208 0.180823
0.202261 0.318085 0.046203
0.177779 0.334588 0.038462
0.230270 0.133090 0.168677
0.191992 0.865252 0.204796
0.354652 0.303327 0.132909
0.342629 0.743781 0.144052
0.148043 0.956835 0.088890
0.128297 0.958625 0.173731
0.080921 0.038800 0.160511
0.135259 0.435124 0.033622
0.024115 0.567430 0.248324
0.196016 0.560483 0.224193
0.260119 0.650413 0.181001
0.133862 0.949292 0.174853
0.289842 0.818572 0.093015
0.331636 0.770305 0.114187
0.126649 0.145916 0.223525
0.252273 0.645064 0.178080
0.221727 0.816335 0.182889
0.325955 0.553032 0.094906
0.131308 0.047758 0.166890
0.079846 0.036181 0.168078
0.040507 0.988693 0.126746
0.230567 0.167894 0.065527
0.332406 0.706960 0.135745
0.167301 0.686304 0.216728
0.327189 0.448307 0.154132
0.264454 0.615224 0.180437
0.022043 0.986177 0.004010
0.352586 0.541058 0.123844
0.233426 0.667614 0.185252
0.338843 0.698329 0.110251
0.326018 0.595167 0.095701
0.183963 0.856989 0.042088
0.180025 0.351581 0.209017
0.164988 0.937923 0.171330
0.023298 0.014706 0.077475
0.226816 0.896061 0.090735
0.212983 0.911608 0.072817
0.038551 0.989400 0.139255
0.352094 0.412698 0.125288
0.121966 0.782239 0.237488
0.325721 0.794019 0.092303
0.262963 0.373149 0.060905
0.335784 0.267507 0.150085
0.311891 0.655619 0.075800
0.020564 0.885373 0.247160
0.295499 0.277455 0.074539
0.351632 0.294200 0.125998
0.076568 0.047646 0.156974
0.328685 0.225092 0.163533
0.167430 0.134734 0.037013
0.328860 0.699519 0.102360
0.277816 0.737186 0.072420
0.095146 0.896960 0.020457
0.239757 0.266833 0.054323
0.108542 0.033608 0.190109
0.364413 0.282514 0.118326
0.021271 0.156859 0.235511
0.289201 0.821352 0.174018
0.273246 0.113553 0.144333
0.044984 0.475408 0.242389
0.358442 0.630477 0.131720
0.348118 0.623686 0.126719
0.315258 0.843840 0.128880
0.257951 0.904205 0.123624
0.179937 0.096707 0.044227
0.339016 0.277185 0.102169
0.339728 0.428000 0.155809
0.188152 0.666762 0.062364
0.317244 0.328637 0.174187
0.038474 0.025519 0.024320
0.333748 0.738646 0.157733
0.270088 0.465250 0.062115
0.142429 0.152403 0.026318
0.360122 0.545884 0.107675
0.332087 0.696031 0.143057
0.050071 0.051251 0.128216
0.291516 0.589199 0.074565
0.042791 0.535673 0.013605
0.103003 0.027598 0.098489
0.241051 0.432545 0.202990
0.210490 0.218533 0.054208
0.038984 0.709508 0.239995
0.097729 0.596590 0.013575
0.338311 0.230418 0.137021
0.156398 0.065398 0.168311
0.007183 0.970823 0.216233
0.348489 0.417874 0.099269
0.185001 0.594340 0.036046
0.361101 0.552727 0.132630
0.099677 0.927887 0.205167
0.081063 0.114020 0.021868
0.186153 0.620903 0.210113
0.250436 0.421594 0.066214
0.182261 0.398206 0.185812
0.350595 0.718667 0.113419
0.254524 0.506867 0.063597
0.180848 0.628284 0.043596
0.075990 0.980971 0.159686
0.132177 0.121483 0.213971
0.029166 0.208248 0.022124
0.142818 0.618576 0.199729
0.362312 0.648056 0.142758
0.068393 0.971997 0.140415
0.152826 0.946964 0.114372
0.273810 0.899866 0.136953
0.143057 0.413483 0.228587
0.330540 0.521758 0.104117
0.009763 0.997006 0.039208
0.037832 0.792901 0.006706
0.012713 0.620144 0.217532
0.346860 0.578051 0.139989
0.029902 0.623496 0.242201
0.298173 0.141901 0.115057
0.332492 0.671777 0.153566
0.307961 0.830833 0.151232
0.288221 0.138934 0.150217
0.052891 0.395160 0.009671
0.351782 0.478238 0.110034
0.307234 0.385582 0.074160
0.103116 0.776830 0.231011
0.263313 0.868044 0.088430
0.035654 0.190065 0.015036
0.342040 0.344447 0.092561
0.204896 0.396078 0.172870
0.354518 0.375082 0.111736
0.331885 0.407627 0.082306
0.222108 0.416242 0.074923
0.340412 0.253779 0.107960
0.254803 0.904624 0.103979
0.311012 0.683314 0.078259
0.266699 0.866804 0.081729
0.285492 0.852249 0.091469
0.151490 0.119914 0.039739
0.167638 0.924201 0.105061
0.230652 0.415186 0.199187
0.154447 0.199946 0.029846
0.237070 0.121857 0.069148
0.040296 0.964312 0.237957
0.280065 0.822126 0.076842
0.003880 0.744430 0.029265
0.191702 0.864095 0.211169
0.320081 0.337991 0.165137
0.361586 0.665321 0.130691
0.114409 0.481669 0.210713
0.111658 0.067745 0.034855
0.185246 0.637928 0.038997
0.272889 0.101630 0.148766
0.154139 0.200778 0.037604
0.368375 0.519313 0.111782
0.133075 0.486667 0.226549
0.313842 0.510772 0.166010
0.302077 0.165766 0.094980
0.185480 0.809186 0.206154
0.353626 0.676384 0.140291
0.201290 0.624683 0.214575
0.188722 0.293255 0.041347
0.344056 0.421167 0.102982
0.188175 0.948157 0.124532
0.020848 0.142609 0.028388
0.194893 0.924459 0.070183
0.245683 0.280796 0.059666
0.157344 0.490311 0.017165
0.190754 0.925859 0.081270
0.304277 0.156043 0.133989
0.242802 0.091093 0.151483
0.018197 0.506852 0.235293
0.219018 0.343812 0.043666
0.105230 0.319165 0.232512
0.236253 0.917749 0.117921
0.311598 0.598807 0.167445
0.199268 0.682239 0.042287
0.291873 0.723072 0.183426
0.145096 0.607743 0.036998
0.069444 0.978861 0.192954
0.039590 0.426580 0.016503
0.348209 0.656458 0.147870
0.028770 0.374215 0.240305
0.128489 0.062762 0.038115
0.345586 0.269499 0.118558
0.257573 0.386563 0.177509
0.012193 0.516127 0.243261
0.025291 0.434946 0.227979
0.070130 0.039810 0.044954
0.256085 0.122704 0.076060
0.008841 0.606413 0.000241
0.234988 0.110316 0.077159
0.196780 0.553661 0.043270
0.185366 0.616289 0.031269
0.008017 0.280754 0.236152
0.331261 0.695991 0.096359
0.270839 0.734660 0.188638
0.175495 0.533612 0.043320
0.255122 0.111989 0.169926
0.072633 0.960754 0.068869
0.023434 0.131006 0.025743
0.322920 0.409799 0.078411
0.007239 0.891357 0.249122
0.342049 0.739425 0.124380
0.281497 0.524128 0.071573
0.198701 0.547950 0.201293
0.306772 0.320366 0.172902
0.150829 0.113740 0.043232
0.016175 0.982813 0.218025
0.348953 0.442201 0.139775
0.120863 0.898713 0.223864
0.322505 0.532777 0.084480
0.049701 0.010111 0.206675
0.245109 0.915576 0.136697
0.184169 0.840336 0.204756
0.148280 0.891605 0.044238
0.359971 0.743021 0.123523
0.276265 0.109990 0.137591
0.099534 0.952969 0.199590
0.339359 0.732441 0.086601
0.064866 0.028310 0.042787
0.089898 0.020680 0.162109
0.329778 0.483980 0.084009
0.016912 0.746861 0.011219
0.272077 0.196878 0.079113
0.192315 0.273712 0.215857
0.259780 0.504090 0.065525
0.029179 0.537583 0.226575
0.329715 0.372401 0.165783
0.119947 0.857310 0.035876
0.344924 0.310093 0.113972
0.357161 0.491990 0.113687
0.206079 0.878813 0.181800
0.134899 0.143131 0.216526
0.244858 0.415100 0.186646
0.195988 0.934084 0.141696
0.268371 0.107805 0.103488
0.220117 0.126548 0.185438
0.091612 0.037505 0.209520
0.269035 0.130227 0.173427
0.345845 0.476511 0.142490
0.151117 0.955236 0.089092
0.333909 0.760406 0.157706
0.367019 0.632057 0.136451
0.082271 0.975584 0.095285
0.026684 0.001099 0.183829
0.203413 0.880603 0.057740
0.055985 0.485113 0.009993
0.357886 0.387713 0.104277
0.281182 0.430617 0.187394
0.315149 0.153686 0.133252
0.183768 0.633876 0.027365
0.165824 0.122108 0.208345
0.025037 0.984231 0.019328
0.313064 0.369499 0.079940
0.157322 0.449418 0.219836
0.332367 0.660740 0.167437
0.019080 0.014954 0.079385
0.315573 0.180518 0.098250
0.017281 0.961562 0.014618
0.215977 0.912214 0.077408
0.140574 0.104824 0.207928
0.225818 0.592579 0.206844
0.299055 0.138653 0.149221
0.262975 0.584021 0.191530
0.347604 0.319890 0.121242
0.160735 0.458445 0.207575
0.220889 0.236134 0.051281
0.166550 0.062368 0.171803
0.039197 0.995065 0.171298
0.322769 0.331806 0.087982
0.136316 0.076756 0.033971
0.346308 0.431992 0.143126
0.273524 0.789536 0.176311
0.283377 0.504889 0.180562
0.319072 0.332410 0.088879
0.238149 0.744762 0.054661
0.076372 0.101192 0.018715
0.101264 0.902424 0.218814
0.330076 0.622092 0.088905
0.207872 0.441660 0.197636
0.261790 0.531262 0.060662
0.314266 0.337987 0.074043
0.159792 0.648803 0.224661
0.208305 0.101529 0.160050
0.344098 0.682919 0.111889
0.279091 0.463599 0.073624
0.086081 0.036580 0.193151
0.330104 0.684635 0.149514
0.325492 0.209437 0.104436
0.369787 0.481908 0.132777
0.092825 0.537596 0.016445
0.149064 0.398771 0.199335
0.337511 0.410868 0.096396
0.321999 0.833774 0.140512
0.168089 0.406088 0.024973
0.251522 0.088403 0.121084
0.189433 0.797444 0.044949
0.359436 0.652008 0.128597
0.286798 0.126536 0.089479
0.358615 0.481584 0.113707
0.235543 0.317209 0.048366
0.231395 0.238240 0.195950
0.183521 0.131015 0.200667
0.261325 0.900343 0.110870
0.027334 0.620220 0.004821
0.018767 0.689073 0.246229
0.184285 0.114294 0.180235
0.147971 0.287897 0.031375
0.322585 0.461046 0.080766
0.034921 0.640128 0.011153
0.161650 0.641490 0.042829
0.153375 0.333337 0.221308
0.351599 0.398774 0.132888
0.292798 0.139342 0.153692
0.218190 0.422127 0.208989
0.064901 0.025974 0.042315
0.185305 0.852540 0.045386
0.266395 0.589749 0.176885
0.040319 0.571094 0.015216
0.157395 0.518763 0.217914
0.153324 0.046980 0.161700
0.140750 0.084582 0.212522
0.329061 0.358853 0.159357
0.176954 0.676135 0.019669
0.229381 0.238084 0.183152
0.032802 0.846209 0.001690
0.150209 0.843501 0.221257
0.020900 0.957752 0.011254
0.028013 0.003398 0.207521
0.327367 0.804106 0.097424
0.172259 0.121723 0.199999
0.029554 0.372833 0.238876
0.124558 0.868437 0.036228
0.260840 0.601944 0.192009
0.361891 0.507764 0.126625
0.020744 0.945603 0.001496
0.197710 0.334674 0.205525
0.019318 0.386748 0.244609
0.271812 0.846766 0.077640
0.099957 0.945056 0.054115
0.326048 0.712967 0.089761
0.256484 0.504744 0.064078
0.101728 0.947684 0.054143
0.269493 0.466600 0.063632
0.247381 0.560093 0.200376
0.198793 0.923002 0.089465
0.181284 0.943564 0.108392
0.072749 0.974886 0.072827
0.075542 0.020913 0.057501
0.082398 0.038920 0.174685
0.214456 0.089644 0.157097
0.255200 0.200408 0.184390
0.208316 0.137991 0.199136
0.207192 0.785583 0.186071
0.358823 0.669332 0.124103
</DataArray>
</Points>
<PointData>
<DataArray NumberOfComponents='1' type='Int32' Name='ParticleType' format='ascii'>
1
1
1
1
1
1
1
1
1
1
1
1
1
1
1
1
1
1
1
1
1
1
1
1
1
1
1
1
1
1
1
1
1
1
1
1
1
1
1
1
1
1
1
1
1
1
1
1
1
1
1
1
1
1
1
1
1
1
1
1
1
1
1
1
1
1
1
1
1
1
1
1
1
1
1
1
1
1
1
1
1
1
1
1
1
1
1
1
1
1
1
1
1
1
1
1
1
1
1
1
1
1
1
1
1
1
1
1
1
1
1
1
1
1
1
1
1
1
1
1
1
1
1
1
1
1
1
1
1
1
1
1
1
1
1
1
1
1
1
1
1
1
1
1
1
1
1
1
1
1
1
1
1
1
1
1
1
1
1
1
1
1
1
1
1
1
1
1
1
1
1
1
1
1
1
1
1
1
1
1
1
1
1
1
1
1
1
1
1
1
1
1
1
1
1
1
1
1
1
1
1
1
1
1
1
1
1
1
1
1
1
1
1
1
1
1
1
1
1
1
1
1
1
1
1
1
1
1
1
1
1
1
1
1
1
1
1
1
1
1
1
1
1
1
1
1
1
1
1
1
1
1
1
1
1
1
1
1
1
1
1
1
1
1
1
1
1
1
1
1
1
1
1
1
1
1
1
1
1
1
1
1
1
1
1
1
1
1
1
1
1
1
1
1
1
1
1
1
1
1
1
1
1
1
1
1
1
1
1
1
1
1
1
1
1
1
1
1
1
1
1
1
1
1
1
1
1
1
1
1
1
1
1
1
1
1
1
1
1
1
1
1
1
1
1
1
1
1
1
1
1
1
1
1
1
1
1
1
1
1
1
1
1
1
1
1
1
1
1
1
1
1
1
1
1
1
1
1
1
1
1
1
1
1
1
1
1
1
1
1
1
1
1
1
1
1
1
1
1
1
1
1
1
1
1
1
1
1
1
1
1
1
1
1
1
1
1
1
1
1
1
1
1
1
1
1
1
1
1
1
1
1
1
1
1
1
1
1
1
1
1
1
1
1
1
1
1
1
1
1
1
1
1
1
1
1
1
1
1
1
1
1
1
1
1
1
1
1
1
1
1
1
1
1
1
1
1
1
1
1
1
1
1
1
1
1
1
1
1
1
1
1
1
1
1
1
1
1
1
1
</DataArray>
<DataArray NumberOfComponents='1' type='Int32' Name='ParticleID' format='ascii'>
0
1
2
3
4
5
6
7
8
9
10
11
12
13
14
15
16
17
18
19
20
21
22
23
24
25
26
27
28
29
30
31
32
33
34
35
36
37
38
39
40
41
42
43
44
45
46
47
48
49
50
51
52
53
54
55
56
57
58
59
60
61
62
63
64
65
66
67
68
69
70
71
72
73
74
75
76
77
78
79
80
81
82
83
84
85
86
87
88
89
90
91
92
93
94
95
96
97
98
99
100
101
102
103
104
105
106
107
108
109
110
111
112
113
114
115
116
117
118
119
120
121
122
123
124
125
126
127
128
129
130
131
132
133
134
135
136
137
138
139
140
141
142
143
144
145
146
147
148
149
150
151
152
153
154
155
156
157
158
159
160
161
162
163
164
165
166
167
168
169
170
171
172
173
174
175
176
177
178
179
180
181
182
183
184
185
186
187
188
189
190
191
192
193
194
195
196
197
198
199
200
201
202
203
204
205
206
207
208
209
210
211
212
213
214
215
216
217
218
219
220
221
222
223
224
225
226
227
228
229
230
231
232
233
234
235
236
237
238
239
240
241
242
243
244
245
246
247
248
249
250
251
252
253
254
255
256
257
258
259
260
261
262
263
264
265
266
267
268
269
270
271
272
273
274
275
276
277
278
279
280
281
282
283
284
285
286
287
288
289
290
291
292
293
294
295
296
297
298
299
300
301
302
303
304
305
306
307
308
309
310
311
312
313
314
315
316
317
318
319
320
321
322
323
324
325
326
327
328
329
330
331
332
333
334
335
336
337
338
339
340
341
342
343
344
345
346
347
348
349
350
351
352
353
354
355
356
357
358
359
360
361
362
363
364
365
366
367
368
369
370
371
372
373
374
375
376
377
378
379
380
381
382
383
384
385
386
387
388
389
390
391
392
393
394
395
396
397
398
399
400
401
402
403
404
405
406
407
408
409
410
411
412
413
414
415
416
417
418
419
420
421
422
423
424
425
426
427
428
429
430
431
432
433
434
435
436
437
438
439
440
441
442
443
444
445
446
447
448
449
450
451
452
453
454
455
456
457
458
459
460
461
462
463
464
465
466
467
468
469
470
471
472
473
474
475
476
477
478
479
480
481
482
483
484
485
486
487
488
489
490
491
492
493
494
495
496
497
498
499
</DataArray>
<DataArray NumberOfComponents='1' type='Int8' Name='IsActive' format='ascii'>
1
1
1
1
1
1
1
1
1
1
1
1
1
1
1
1
1
1
1
1
1
1
1
1
1
1
1
1
1
1
1
1
1
1
1
1
1
1
1
1
1
1
1
1
1
1
1
1
1
1
1
1
1
1
1
1
1
1
1
1
1
1
1
1
1
1
1
1
1
1
1
1
1
1
1
1
1
1
1
1
1
1
1
1
1
1
1
1
1
1
1
1
1
1
1
1
1
1
1
1
1
1
1
1
1
1
1
1
1
1
1
1
1
1
1
1
1
1
1
1
1
1
1
1
1
1
1
1
1
1
1
1
1
1
1
1
1
1
1
1
1
1
1
1
1
1
1
1
1
1
1
1
1
1
1
1
1
1
1
1
1
1
1
1
1
1
1
1
1
1
1
1
1
1
1
1
1
1
1
1
1
1
1
1
1
1
1
1
1
1
1
1
1
1
1
1
1
1
1
1
1
1
1
1
1
1
1
1
1
1
1
1
1
1
1
1
1
1
1
1
1
1
1
1
1
1
1
1
1
1
1
1
1
1
1
1
1
1
1
1
1
1
1
1
1
1
1
1
1
1
1
1
1
1
1
1
1
1
1
1
1
1
1
1
1
1
1
1
1
1
1
1
1
1
1
1
1
1
1
1
1
1
1
1
1
1
1
1
1
1
1
1
1
1
1
1
1
1
1
1
1
1
1
1
1
1
1
1
1
1
1
1
1
1
1
1
1
1
1
1
1
1
1
1
1
1
1
1
1
1
1
1
1
1
1
1
1
1
1
1
1
1
1
1
1
1
1
1
1
1
1
1
1
1
1
1
1
1
1
1
1
1
1
1
1
1
1
1
1
1
1
1
1
1
1
1
1
1
1
1
1
1
1
1
1
1
1
1
1
1
1
1
1
1
1
1
1
1
1
1
1
1
1
1
1
1
1
1
1
1
1
1
1
1
1
1
1
1
1
1
1
1
1
1
1
1
1
1
1
1
1
1
1
1
1
1
1
1
1
1
1
1
1
1
1
1
1
1
1
1
1
1
1
1
1
1
1
1
1
1
1
1
1
1
1
1
1
1
1
1
1
1
1
1
1
1
1
1
1
1
1
1
1
1
1
1
1
1
1
1
1
1
1
1
1
1
1
1
1
1
</DataArray>
<DataArray NumberOfComponents='1' type='Int32' Name='ParticleTetID' format='ascii'>
79062
11304
49095
3378
52556
92208
49739
33854
79062
33854
105540
97354
45369
48415
21280
7963
57085
52957
100932
66714
28029
101388
53594
97137
7963
37806
3470
17348
100560
101523
40156
95134
103165
59088
38301
31563
49739
31550
91740
33111
63320
59417
50948
31131
17016
83524
94294
104076
1612
59088
65172
80251
11304
100560
105979
73060
50273
49728
6257
104708
105540
28599
68009
102909
20203
85198
67616
16496
63320
10347
27080
37445
100657
316
80251
77003
1948
60435
40156
39687
99295
76444
28536
31550
52556
48415
68009
13475
55942
49739
94705
6294
10969
68523
14171
94137
99903
331
6367
37469
21213
101500
4281
2995
4281
104077
43601
21539
4281
11116
80804
9083
71593
2995
33603
7366
6810
65172
101245
31065
101233
51877
1612
31396
14703
73560
2647
18818
52556
77564
103634
100092
65172
4262
2995
6424
16261
10969
84462
100789
6810
1948
32626
16863
44836
68009
41215
104077
6233
45726
10347
96040
3268
78070
105596
11657
104709
94122
99903
23043
39179
11657
2166
40425
55388
47041
28281
9201
85676
104709
97137
14916
37806
21280
5533
102909
101445
6810
25403
37806
55309
45951
59527
39977
101509
28536
28536
97137
13580
78089
1174
9329
36047
24881
71593
49739
3268
104709
9961
77564
40430
67966
36977
3325
91091
3978
100903
1651
48488
84524
10969
10969
380
6257
33111
51101
45896
8572
104420
106111
68403
4429
77583
6810
37806
54400
67234
44153
17510
16261
13112
69970
91740
2647
13123
101245
14171
43966
6810
101523
59611
35025
27594
46236
75395
14029
65116
81789
48305
99275
26063
10969
24855
1612
16496
90229
9201
101512
101022
100807
10866
100807
60085
102631
4280
65256
95019
3470
13177
52573
16046
85474
8704
57704
11304
14171
27594
15160
75589
53594
16046
2166
92267
1612
49354
59812
75669
17189
2166
100743
98918
25087
33780
105686
49353
65116
61738
59812
2845
105979
30274
10682
82829
33780
78663
20997
14171
1612
94294
67232
3325
36887
1587
31550
31396
100092
6424
91889
310
15147
4092
12295
31833
68009
74099
102631
101063
49353
21539
53331
100092
79729
20417
70141
101354
70141
11628
65116
98826
40430
53
39010
10347
92937
94294
25183
101139
49516
4429
2538
25087
58582
101245
1182
27043
79430
90466
1791
82829
56163
52556
61738
103165
46970
20417
104709
23767
100743
2173
50068
14029
77116
17348
84296
9147
3470
45020
55388
85216
83
66714
3104
14003
10347
454
105597
29693
10969
28202
101043
29535
98219
27540
20976
31550
65116
104392
101321
5374
11694
40156
101509
8919
101224
28536
63320
31563
65256
102909
9147
2360
3305
13123
66170
8704
34629
5533
331
30274
8363
55427
84926
27043
47932
15360
74629
9106
38719
47954
64224
4429
14003
102631
13712
454
65233
44354
14171
4280
39999
31396
16035
10969
80804
3470
30260
64732
36389
75589
101354
100054
8673
85795
6298
76206
67328
73852
13475
65256
49354
20417
95849
102909
88021
54478
85676
63320
17348
20203
18779
100560
72948
101224
98033
1174
104392
101063
90288
102909
454
95063
57085
101063
11130
94803
46970
14029
94803
4429
8995
1587
1612
92937
20417
104708
70327
33571
3104
104789
33780
</DataArray>
<DataArray NumberOfComponents='3' type='Float32' Name='vels' format='ascii'>
14.430289 -0.001734 0.053286
21.987194 -0.133099 -0.002307
1.125267 -0.000520 0.014349
9.358785 0.068144 0.005492
19.301955 0.211138 -0.008109
0.672940 0.011962 0.051099
18.155386 -0.023666 -0.069127
11.948480 -0.005866 0.066141
14.750264 -0.003338 0.054491
13.510481 -0.019529 0.088810
12.235955 0.096124 -0.108812
0.766494 -0.008219 0.095443
6.608659 0.002469 0.013455
4.499006 0.032207 0.034247
11.375219 0.003194 0.019494
17.325994 0.150569 -0.003920
14.013580 0.020857 0.081871
3.028736 0.015932 0.009228
-0.105664 -0.016397 -0.001254
17.903957 -0.155500 -0.007066
22.372577 -0.252769 0.001786
0.075416 0.058517 -0.004089
19.839210 0.159378 -0.008729
0.118248 0.004849 -0.010035
19.434569 0.198135 0.005214
23.112789 0.228908 -0.003006
22.539192 -0.028400 -0.004147
22.394042 -0.127077 0.002190
0.250442 0.009746 -0.013887
6.850487 0.083093 0.068350
23.180614 0.248476 -0.001544
12.535268 0.578445 -1.603403
7.644541 0.037235 0.062745
8.256076 0.007566 0.024088
8.872918 0.026109 0.003246
14.537389 0.024045 0.022339
17.521885 -0.125684 -0.040825
19.671254 -0.189756 0.000317
14.064650 -0.040366 -0.152135
13.360336 -0.137306 -0.036308
7.125722 -0.050658 0.018750
3.919914 0.043141 0.010782
2.276619 0.022357 -0.016172
4.610187 0.040053 -0.060076
23.164766 0.227782 -0.001663
0.066433 0.009252 -0.005091
-0.046376 0.020966 -0.000371
20.139352 0.146896 0.009758
13.032452 0.104827 -0.032765
15.335218 0.027688 0.040469
17.153108 0.160758 0.005930
-0.028031 -0.033322 0.007586
23.243582 -0.222518 -0.000171
0.289190 0.005780 -0.016231
7.409835 0.011986 0.027869
13.149485 0.137332 0.271530
5.601255 0.016162 0.005350
19.287621 -0.005086 -0.070695
16.141802 0.159402 -0.009324
3.466599 -0.007377 0.014349
2.556386 -0.004362 -0.002701
17.923931 0.162246 0.007576
1.040112 -0.008489 0.005337
15.598655 0.058650 0.011253
13.357704 0.014840 -0.054377
-0.047745 -0.039119 -0.005744
0.141212 -0.036960 0.054366
20.637452 0.156302 -0.015453
11.546789 -0.065305 0.085534
19.031729 -0.162076 0.030946
21.705313 -0.235368 -0.003126
8.675617 0.027130 -0.034575
8.789147 0.030268 0.000506
18.114118 0.161759 0.009036
-0.136505 0.005358 0.000147
5.767228 -0.057433 -0.069402
16.940691 0.046791 -0.035909
18.471837 0.098742 -0.018115
21.933313 0.172579 0.002370
21.171948 0.131841 0.001185
-0.071028 -0.012950 -0.003953
21.857638 0.198074 0.002139
11.565451 0.107213 -0.040517
19.299654 -0.193608 -0.001254
22.638616 0.287245 0.002246
3.972397 0.024256 0.026536
5.768975 -0.013305 0.081952
22.981372 -0.195700 0.000775
15.138417 -0.149349 -0.020062
20.471478 -0.211597 -0.006484
12.671433 -0.032724 -0.081141
21.017853 0.156871 -0.019406
23.102650 0.201703 0.000349
11.383435 0.094850 -0.099035
23.186977 -0.142476 -0.000964
0.293658 -0.014727 0.003373
0.139108 0.055901 -0.017770
18.999052 0.143982 0.015407
14.229680 0.102670 -0.058208
12.544033 -0.025435 0.085754
16.362519 -0.065437 -0.046965
0.372320 -0.006260 -0.087162
21.211316 0.234775 -0.003632
23.015190 -0.112603 0.001740
22.204124 0.240697 -0.002177
18.770949 0.134695 0.010765
23.115836 -0.109107 0.000165
22.649593 -0.231480 0.004015
22.200090 0.247551 0.000171
11.004695 -0.111476 -0.014553
17.008089 -0.145465 0.010776
20.471574 -0.060843 0.009278
2.179424 -0.159833 0.042735
23.191391 -0.090407 -0.000292
11.022656 -0.005224 0.027622
11.583722 0.032723 -0.038435
22.099985 0.069790 -0.002614
16.258072 0.153668 0.018243
0.235870 0.003466 -0.061150
20.808697 0.006173 -0.004396
1.253880 0.251208 0.039839
11.328409 0.050924 0.112784
2.120140 -0.006880 -0.004675
14.989298 -0.150798 0.008523
9.804290 -0.023117 0.045995
9.162617 0.106699 -0.071647
21.862562 -0.236046 0.004575
16.970974 0.040643 0.035680
21.692411 0.247071 -0.005348
15.223809 -0.088227 -0.085503
6.774045 -0.046672 0.018450
-0.080245 0.018780 -0.004701
17.185028 0.156854 0.006430
14.571636 -0.151867 0.005116
22.857644 -0.127468 0.002781
15.634145 -0.060349 -0.030603
15.608567 -0.030068 0.017171
23.345575 0.175080 -0.000555
5.159061 0.022179 -0.017222
5.045037 0.006360 0.013503
23.026510 0.115694 -0.001556
14.476983 0.074837 -0.014709
12.452974 -0.017251 -0.031975
22.724065 -0.225529 0.001165
22.654903 0.226261 0.002322
5.470915 -0.042524 0.091940
4.364098 -0.000857 -0.001092
17.893750 0.118854 0.020161
12.069003 -0.033712 -0.028802
12.192137 -0.003539 -0.050517
16.520571 -0.124063 0.008616
11.282261 0.105658 0.009413
23.074609 -0.273368 -0.000341
22.822684 0.265988 -0.000290
10.108457 0.124371 -0.122318
10.346007 0.119378 0.081626
0.604109 -0.000322 0.009368
10.827150 0.048250 -0.063783
0.379979 0.009701 0.008182
8.605534 0.003715 0.017669
21.861908 0.068952 0.035009
10.784847 0.108903 0.081949
17.484472 0.170497 -0.036276
21.690511 0.207293 -0.008196
6.492924 -0.034342 0.032600
19.971875 0.051753 0.042825
1.929259 0.034662 0.014786
22.245945 0.094439 -0.001954
9.970934 -0.074739 0.048120
7.180631 -0.015360 0.008374
0.095702 -0.009338 -0.000272
16.154157 -0.159971 -0.040624
21.072955 0.217065 0.005758
10.689723 -0.000908 0.020455
21.520373 -0.039018 0.015314
8.928234 0.045288 0.003381
0.241470 0.001182 0.000217
23.392760 0.059831 -0.000387
17.051621 0.072921 0.026052
22.828361 0.228957 -0.004347
21.617913 0.061373 -0.011335
11.249737 0.125419 -0.035434
12.721743 0.001979 0.073247
6.694451 0.048681 0.031311
0.049537 -0.004541 0.024322
15.849307 0.182969 -0.021109
11.391804 0.106813 -0.047994
0.015818 -0.000777 -0.007326
20.972747 -0.123007 -0.002450
4.254074 -0.009922 0.006380
21.256767 0.237898 -0.013147
15.001270 -0.073644 -0.012205
21.660799 -0.236418 0.003633
19.699017 0.150419 -0.006811
0.737923 -0.039031 0.029058
20.286674 -0.194819 -0.013019
22.891520 -0.220041 0.004474
0.207223 0.000004 0.010768
22.298984 -0.282011 -0.001171
9.787560 -0.075507 -0.023561
21.954264 0.243032 -0.005547
16.311857 0.189872 -0.005937
5.250241 -0.015488 -0.061876
14.842298 -0.081450 -0.026290
10.874177 -0.114939 0.092452
22.885940 -0.309517 -0.001541
0.183821 0.052876 0.000633
18.586262 0.166624 0.004648
19.599298 -0.175967 0.008989
2.684302 -0.032145 0.108798
23.250281 0.194167 -0.001039
23.337017 0.182119 -0.000565
20.360773 0.201386 0.000270
16.238936 0.157291 -0.009243
14.230841 -0.132093 -0.074777
20.770153 -0.209109 -0.007518
21.982973 -0.110294 0.002668
17.510413 -0.008935 -0.105344
20.189422 -0.174782 0.008583
1.905494 -0.011660 0.043108
22.938367 0.250188 -0.001202
16.759100 -0.024666 -0.017871
7.729130 -0.011914 -0.008739
22.910984 0.083250 -0.001391
19.368585 0.202656 0.006776
7.174404 -0.068609 0.035918
18.877296 0.061978 -0.014426
0.177322 0.013693 -0.011333
3.683378 0.011754 0.030444
14.278974 -0.023561 0.019512
15.368550 -0.112788 -0.032718
0.036989 -0.029352 0.007412
4.677357 -0.029866 -0.021268
21.995219 -0.255244 0.001832
6.628133 -0.019879 -0.055855
0.171294 -0.011615 -0.056358
23.235550 -0.141636 -0.000367
11.601648 0.003095 -0.037555
23.263904 0.093054 -0.000253
4.490083 0.058603 0.037614
5.683002 0.048035 -0.013938
12.688052 -0.010777 0.045650
17.596751 -0.070502 -0.008463
17.919875 0.001645 0.108527
22.280290 0.258766 -0.005769
14.833948 -0.001640 -0.019710
13.460919 -0.001041 -0.054766
4.195261 0.001669 0.019091
8.673502 -0.064440 0.050478
0.307595 0.013990 -0.013318
12.555009 -0.022846 0.099953
22.954714 0.282947 -0.000923
6.378429 0.073659 -0.032815
10.633145 0.076198 -0.020525
20.368584 0.168144 -0.020871
7.240925 0.029130 0.026178
22.767273 0.024917 -0.002910
0.521703 -0.023187 0.146595
0.328233 -0.012597 -0.030013
0.076322 0.023689 -0.022226
22.281635 0.154701 0.001539
0.346740 -0.031895 0.030274
19.473921 -0.188271 0.000117
22.046652 0.206044 0.003110
20.957324 0.196350 -0.000016
17.236889 -0.137626 0.005763
0.282430 -0.009181 -0.018563
23.379989 -0.036827 -0.000041
20.612910 -0.102437 -0.004652
6.085559 -0.148666 0.072280
17.301500 0.153378 -0.012207
-0.068370 -0.001339 -0.004068
21.491997 -0.188230 -0.003136
19.494930 -0.018367 0.068363
23.088755 -0.205665 -0.001496
20.792971 -0.184078 -0.001254
7.262297 -0.023895 -0.002658
22.248632 -0.255317 -0.001840
18.189465 0.189975 -0.010658
20.738468 0.176164 -0.006309
16.095261 0.143409 -0.024156
18.409968 0.169630 0.006134
16.156216 -0.055159 -0.134813
13.435279 0.114504 -0.035158
15.173932 -0.025356 0.027867
18.228440 0.119930 -0.145336
14.893550 -0.129070 -0.024535
1.610119 -0.021579 -0.053616
18.010150 0.172328 -0.014754
0.028310 0.014675 0.009425
9.798981 0.087687 0.002260
21.177924 -0.170514 0.005166
22.931061 0.274133 0.000607
0.492773 -0.003721 0.000281
6.575098 0.000790 -0.065533
12.314299 0.018120 -0.028097
16.361756 -0.137003 0.006658
13.809242 0.044191 -0.073180
23.027938 0.033880 0.000230
7.848444 0.009285 0.034325
21.974545 0.014837 0.002404
19.516227 -0.188498 -0.005887
12.695234 0.065531 0.059224
23.153052 0.244867 -0.000054
11.257844 0.021817 0.020526
12.806035 -0.017467 -0.052607
23.339868 -0.133447 -0.000283
10.955728 0.088151 -0.003749
0.073532 -0.007929 -0.006688
11.665327 0.084523 -0.018416