<VTKFile type='UnstructuredGrid' version='1.0' byte_order='LittleEndian' header_type='UInt64'>
<UnstructuredGrid>
<Piece NumberOfCells='500' NumberOfPoints='500'>
<Points>
<DataArray NumberOfComponents='3' type='Float32' Name='Position' format='ascii'>
0.598332 0.620095 0.226811
1.556088 0.217479 0.117622
0.153897 0.980597 0.223027
0.947466 0.848444 0.184917
1.705430 0.807460 0.106299
0.081816 0.192239 0.247275
1.328898 0.139542 0.074446
0.739303 0.817308 0.209124
0.598835 0.621913 0.224614
0.537877 0.772751 0.227359
0.508816 0.243347 0.035271
0.115969 0.007043 0.058750
0.638754 0.544783 0.219291
0.354478 0.254432 0.237579
0.560347 0.698746 0.215542
1.272279 0.940214 0.150660
0.670886 0.308612 0.204214
0.742004 0.936782 0.160848
0.257430 0.791623 0.218855
1.244558 0.060923 0.113026
1.700927 0.202982 0.146220
0.013784 0.099115 0.237083
1.380455 0.856142 0.078361
0.124974 0.991076 0.150214
1.306127 0.935660 0.129811
1.690456 0.790076 0.118670
0.974999 0.485030 0.099854
1.492501 0.178155 0.159976
0.033061 0.846609 0.003772
0.387368 0.935946 0.219087
1.650672 0.779851 0.151437
0.226340 0.311580 0.242097
0.414767 0.961015 0.184595
0.948300 0.754074 0.181115
0.589330 0.958133 0.128078
0.801361 0.625500 0.202336
1.408964 0.141268 0.076569
1.486093 0.076025 0.123427
0.714414 0.581728 0.046100
0.714225 0.084939 0.068032
0.491277 0.088237 0.215899
0.320287 0.291095 0.238956
0.195688 0.293897 0.005927
0.283453 0.038892 0.032119
1.661731 0.767933 0.115357
0.046793 0.524455 0.007429
0.027242 0.126274 0.021818
1.525820 0.840894 0.166090
0.713401 0.934940 0.106411
0.787300 0.680327 0.199132
1.237569 0.916710 0.171702
0.021379 0.668502 0.223223
1.652751 0.235634 0.131648
0.035460 0.848617 0.003887
0.488356 0.477818 0.227468
0.636018 0.382844 0.206612
0.381473 0.857203 0.230885
0.746937 0.446603 0.039787
1.088106 0.944775 0.119327
0.424084 0.046832 0.165460
0.488440 0.249395 0.026985
1.305996 0.910153 0.174362
0.103172 0.993306 0.192691
0.861176 0.672428 0.190447
0.771013 0.684397 0.044087
0.108838 0.722718 0.003798
0.516774 0.386991 0.029678
1.194506 0.944272 0.128499
0.600179 0.101823 0.204622
1.067587 0.063329 0.155591
1.503097 0.099453 0.157129
0.597631 0.464848 0.027106
0.558267 0.963296 0.114730
1.379313 0.915836 0.086762
0.041804 0.652280 0.243656
0.533724 0.581295 0.028696
0.918036 0.760328 0.055545
1.195807 0.850921 0.068091
1.543453 0.810709 0.155672
1.321206 0.800364 0.151935
0.013250 0.206539 0.215440
1.461106 0.810811 0.150770
0.823948 0.925823 0.067555
1.490198 0.076728 0.120113
1.740069 0.819352 0.122389
0.295167 0.254662 0.239339
0.349813 0.965618 0.185654
1.549249 0.199005 0.134573
1.011304 0.053213 0.104969
1.340175 0.134907 0.077427
0.519404 0.589056 0.021485
1.288759 0.936292 0.124507
1.632027 0.764050 0.137530
0.692361 0.230106 0.039458
1.479053 0.195753 0.106201
0.069907 0.613116 0.248287
0.018714 0.558446 0.248547
0.966313 0.858189 0.195646
0.748962 0.854915 0.048967
0.538405 0.142516 0.200955
0.813100 0.207668 0.047280
0.025537 0.985446 0.175307
1.638835 0.874100 0.102022
1.245148 0.207301 0.083048
1.697411 0.847098 0.134295
1.255338 0.846568 0.177885
1.283506 0.207891 0.094915
1.733432 0.182700 0.124911
1.703551 0.845584 0.130199
0.611243 0.048582 0.116214
1.229949 0.063299 0.091647
0.938073 0.400851 0.179408
0.168388 0.908159 0.241771
1.249008 0.215774 0.103443
0.587558 0.700618 0.214721
0.784330 0.741885 0.041293
1.283906 0.790374 0.095488
1.138854 0.938950 0.172075
0.024029 0.993572 0.222189
0.954556 0.494677 0.079955
0.069311 0.042362 0.005687
0.544440 0.315888 0.212858
0.736576 0.933276 0.155011
0.991170 0.044013 0.123019
0.829335 0.706696 0.187710
0.504268 0.898917 0.028500
1.660557 0.149387 0.135334
0.891601 0.708844 0.191133
1.673076 0.843138 0.099467
0.645961 0.115458 0.038637
0.475434 0.166993 0.226098
0.014355 0.502570 0.224424
1.255315 0.931393 0.166841
0.819574 0.058874 0.149734
1.109117 0.210242 0.076661
0.860325 0.246977 0.051858
0.840515 0.397541 0.198695
1.599008 0.773596 0.126139
0.268476 0.984306 0.099737
0.399147 0.491011 0.234484
1.360029 0.792881 0.121047
0.810106 0.740466 0.049773
0.802952 0.311286 0.040227
1.667121 0.217161 0.143789
1.623559 0.829409 0.160005
0.316506 0.968813 0.190953
0.315153 0.018227 0.101400
1.257461 0.869064 0.179509
0.773296 0.278782 0.046527
0.746825 0.303669 0.038172
1.083784 0.070477 0.170651
0.651151 0.875510 0.206144
1.706485 0.198582 0.132659
1.704319 0.824883 0.143945
0.542563 0.957949 0.088901
0.470327 0.959917 0.172844
0.318916 0.038466 0.161502
0.621829 0.427738 0.034393
0.033247 0.568152 0.249337
0.612366 0.566500 0.224749
1.060665 0.815329 0.181819
0.521253 0.951988 0.175025
1.468192 0.904733 0.092527
1.686278 0.835788 0.113574
0.499005 0.140699 0.223848
1.129389 0.838750 0.177663
1.072684 0.899503 0.182439
1.080817 0.770032 0.093065
0.483470 0.046680 0.167493
0.382649 0.033432 0.168453
0.039417 0.988094 0.128070
1.002975 0.103647 0.064626
1.705858 0.793138 0.135493
0.620719 0.699883 0.216057
1.092779 0.224328 0.156282
1.053351 0.798199 0.181253
0.035569 0.985416 0.005738
1.107562 0.770359 0.123500
0.978644 0.795507 0.185485
1.697794 0.800003 0.109537
1.406343 0.814951 0.095958
0.510484 0.861796 0.042426
0.714325 0.326967 0.209211
0.603766 0.940833 0.172018
0.021615 0.015508 0.077943
1.003198 0.934107 0.089170
0.837338 0.930097 0.072656
0.038299 0.988994 0.138196
1.470171 0.200409 0.125967
0.361629 0.783320 0.238352
1.565067 0.881579 0.092168
1.032608 0.203016 0.061080
1.649673 0.170727 0.150846
1.259658 0.837795 0.075261
0.048635 0.882065 0.247616
1.318460 0.130129 0.074958
1.724284 0.187551 0.125889
0.421973 0.043885 0.158475
1.564075 0.128772 0.164859
0.605566 0.127362 0.036124
1.674249 0.798356 0.101367
1.354292 0.868406 0.072096
0.361301 0.899752 0.019210
0.902995 0.191263 0.054788
0.405619 0.031462 0.189361
1.743223 0.203815 0.118057
0.018753 0.158102 0.235197
1.307872 0.907713 0.174562
1.176483 0.058414 0.145056
0.284576 0.477168 0.242141
1.651886 0.775849 0.131222
1.619317 0.774354 0.126922
1.517601 0.910524 0.128359
1.118443 0.947060 0.124819
0.567844 0.090474 0.045356
1.680178 0.180252 0.102937
1.259728 0.204155 0.156808
0.833346 0.725803 0.062550
1.424127 0.160183 0.174200
0.113009 0.026661 0.023385
1.618966 0.841365 0.158241
0.897364 0.418059 0.062576
0.543738 0.145539 0.025291
1.155801 0.790372 0.106054
1.643039 0.812990 0.144809
0.522838 0.047930 0.128088
1.110890 0.802363 0.073187
0.410518 0.535646 0.015037
0.398841 0.025397 0.097829
0.793334 0.404064 0.203147
0.885259 0.162216 0.052586
0.039406 0.708491 0.240162
0.359438 0.596825 0.013612
1.689816 0.150339 0.137625
0.605688 0.062011 0.168026
0.174453 0.969666 0.215327
1.377462 0.191859 0.097022
0.680465 0.608859 0.035027
1.275832 0.788361 0.132102
0.343962 0.930349 0.205831
0.362761 0.112412 0.021266
0.726773 0.645489 0.209730
0.940177 0.310410 0.065403
0.899645 0.316392 0.185118
1.716279 0.805316 0.111738
0.870233 0.503720 0.063028
0.773334 0.664136 0.043442
0.275265 0.980584 0.159188
0.491748 0.118428 0.213456
0.209114 0.212367 0.025100
0.754763 0.646554 0.201155
1.659007 0.773038 0.142349
0.437006 0.975740 0.141278
0.617382 0.949919 0.114771
1.169901 0.947431 0.137064
0.507537 0.411079 0.229126
0.977793 0.614724 0.100640
0.033277 0.995265 0.046072
0.110595 0.792519 0.005664
0.009850 0.621311 0.216218
1.376533 0.810318 0.139841
0.034753 0.622259 0.243385
1.476045 0.075123 0.114654
1.600309 0.818618 0.154280
1.526954 0.905560 0.152014
1.370938 0.072027 0.149092
0.301432 0.394932 0.013177
0.983591 0.380696 0.110047
1.239535 0.182983 0.073142
0.385876 0.779025 0.231279
1.232184 0.930952 0.088669
0.036745 0.190269 0.013929
1.600645 0.197119 0.092683
1.037827 0.211173 0.173387
1.610686 0.211690 0.111195
1.259263 0.195340 0.080298
1.018460 0.241162 0.073280
1.698563 0.166458 0.108501
1.066979 0.947200 0.104089
1.344856 0.855067 0.077542
1.155359 0.931133 0.081074
1.346802 0.920320 0.089311
0.630407 0.111629 0.038371
0.735317 0.933655 0.104758
0.811279 0.375717 0.198461
0.584192 0.190013 0.029304
0.996814 0.075694 0.069142
0.089559 0.964409 0.238408
1.329838 0.908319 0.075907
0.277382 0.742218 0.031803
0.648286 0.874166 0.212113
1.348198 0.161138 0.164752
1.684904 0.776269 0.130859
0.653986 0.479146 0.211239
0.419027 0.065868 0.034267
0.734882 0.665299 0.037718
1.131867 0.055817 0.147947
0.674563 0.183277 0.037626
0.981794 0.610935 0.112436
0.541832 0.486211 0.227071
0.958429 0.542512 0.165871
1.469221 0.090719 0.095023
0.787029 0.839224 0.207155
1.685373 0.794528 0.140135
0.773913 0.657679 0.215141
0.785619 0.251205 0.043065
1.384434 0.194214 0.101402
0.659314 0.952418 0.124165
0.316965 0.144850 0.029086
0.613315 0.929014 0.069728
0.913599 0.201816 0.059303
0.447456 0.488735 0.017904
0.677379 0.931963 0.080320
1.507779 0.084522 0.134966
0.991602 0.056442 0.151781
0.016031 0.508106 0.234750
0.772065 0.306563 0.042743
0.451978 0.315648 0.233063
0.878106 0.938042 0.117397
1.322040 0.811692 0.168095
0.769311 0.719387 0.042686
1.189702 0.867803 0.185025
0.703115 0.624302 0.036390
0.260391 0.980317 0.195751
0.039184 0.425724 0.017386
1.656388 0.777290 0.147610
0.028770 0.373922 0.239343
0.466930 0.062201 0.038480
1.730267 0.189485 0.119888
1.052674 0.204965 0.179314
0.012801 0.515495 0.243031
0.299048 0.437010 0.228527
0.311141 0.037350 0.043432
1.040813 0.067488 0.075903
0.008273 0.606061 0.000733
0.943168 0.070393 0.076366
0.700536 0.561210 0.043907
0.695743 0.634704 0.032531
0.007667 0.280833 0.235734
1.655772 0.802790 0.096868
1.141657 0.870076 0.189330
0.713312 0.540158 0.042809
1.076612 0.059354 0.170194
0.394861 0.963677 0.068032
0.023471 0.131135 0.026037
1.195326 0.194967 0.075441
0.015848 0.889838 0.248990
1.698435 0.832211 0.125336
0.946922 0.603541 0.071211
0.783620 0.568686 0.201583
1.430410 0.156020 0.173604
0.646922 0.104955 0.043608
0.019027 0.982424 0.216241
1.282724 0.205992 0.140071
0.464540 0.901680 0.225352
0.980392 0.665968 0.082144
0.144008 0.009693 0.206551
0.946270 0.941478 0.137929
0.725365 0.858139 0.205344
0.606609 0.897861 0.044526
1.730522 0.821670 0.123617
1.171338 0.051845 0.137628
0.357059 0.953487 0.201961
1.598633 0.848502 0.086348
0.268027 0.027766 0.041602
0.287190 0.020856 0.163783
0.962370 0.456424 0.083215
0.017848 0.746254 0.011152
1.298082 0.097291 0.078085
0.702524 0.249518 0.214262
0.893650 0.498187 0.065087
0.030157 0.534188 0.227420
1.395599 0.166902 0.166140
0.535234 0.861912 0.035669
1.697463 0.205050 0.114206
0.986805 0.457472 0.110951
0.939101 0.923589 0.182395
0.589963 0.135364 0.216387
0.882470 0.345756 0.187294
0.711891 0.940245 0.141061
1.103035 0.061850 0.102083
0.895923 0.090689 0.185563
0.320552 0.036478 0.211372
1.132325 0.065349 0.174539
0.984364 0.355711 0.143464
0.426782 0.956296 0.088755
1.615531 0.851750 0.158068
1.657787 0.774262 0.135469
0.339995 0.978533 0.093757
0.033976 0.000140 0.183444
0.759672 0.896905 0.057623
0.289303 0.483837 0.008982
1.578890 0.217137 0.103103
0.919708 0.337559 0.186766
1.510860 0.086180 0.133536
0.621239 0.643939 0.027882
0.624795 0.113917 0.209529
0.063867 0.982819 0.021684
1.320138 0.166645 0.079333
0.591764 0.444840 0.219987
1.368629 0.839477 0.167464
0.016987 0.014229 0.081739
1.536843 0.107272 0.097376
0.068154 0.958359 0.017496
0.887476 0.936364 0.076926
0.556311 0.099955 0.207238
0.768359 0.623431 0.206501
1.379196 0.071012 0.149082
0.900624 0.673579 0.193030
1.692088 0.204426 0.121630
0.684365 0.452983 0.206976
0.843257 0.185968 0.050501
0.603216 0.058917 0.173846
0.168894 0.989554 0.169938
1.524350 0.171231 0.088964
0.467165 0.074112 0.033548
1.349557 0.205055 0.142806
1.225798 0.895742 0.176473
0.930924 0.508327 0.180947
1.564140 0.188317 0.089589
0.885529 0.815190 0.053445
0.290413 0.097979 0.018483
0.429235 0.905170 0.218925
1.446361 0.821686 0.087890
0.800804 0.415877 0.197038
0.907807 0.581263 0.061148
1.333203 0.164062 0.073921
0.631591 0.661886 0.223875
0.881740 0.076070 0.161308
1.680152 0.787296 0.111433
0.934743 0.384770 0.074354
0.384958 0.035444 0.194245
1.625146 0.813680 0.149096
1.611202 0.124191 0.104755
0.981996 0.401395 0.133091
0.465624 0.538550 0.015762
0.783982 0.365085 0.199787
1.390741 0.190380 0.094870
1.556266 0.903894 0.141691
0.540406 0.402436 0.024507
1.034383 0.051284 0.120590
0.791213 0.831446 0.044018
1.683534 0.764235 0.128706
1.211707 0.063588 0.089553
0.983833 0.421903 0.112864
0.807394 0.266369 0.048361
0.940306 0.157751 0.196024
0.759550 0.113314 0.201202
1.117766 0.948219 0.111841
0.144308 0.618285 0.003940
0.057767 0.687227 0.248304
0.867291 0.086475 0.181409
0.591129 0.277461 0.031095
0.979004 0.327257 0.079277
0.033980 0.639362 0.012160
0.754007 0.673125 0.043336
0.619570 0.319457 0.221348
1.540963 0.211396 0.132516
1.338618 0.071784 0.154255
0.727536 0.405161 0.209304
0.255522 0.024574 0.040871
0.731008 0.869212 0.044866
1.001031 0.746843 0.176681
0.040171 0.572705 0.015137
0.655017 0.521080 0.217891
0.548143 0.043816 0.160489
0.494389 0.080142 0.213048
1.554864 0.192252 0.159921
0.566517 0.684096 0.020209
1.105355 0.120564 0.182471
0.038803 0.848568 0.000781
0.582955 0.850440 0.222038
0.062320 0.953625 0.013299
0.081148 0.003307 0.208465
1.609354 0.880444 0.099186
0.705264 0.109794 0.199734
0.027945 0.374478 0.238310
0.564528 0.875392 0.035858
0.918571 0.703689 0.193158
0.985025 0.521299 0.126421
0.030954 0.943520 0.001736
0.779670 0.295259 0.205828
0.018992 0.387368 0.244648
1.253431 0.916939 0.077828
0.443179 0.946789 0.053116
1.597149 0.830592 0.090201
0.891522 0.500066 0.063203
0.437569 0.950381 0.052426
0.896340 0.420527 0.062646
0.823514 0.593756 0.201150
0.660236 0.928358 0.090264
0.668275 0.948975 0.109152
0.293699 0.977352 0.071353
0.280985 0.020507 0.057046
0.407079 0.037309 0.175481
0.984664 0.056865 0.158593
0.998056 0.121793 0.185050
0.712000 0.123988 0.200188
0.952811 0.865765 0.185576
1.712946 0.776477 0.124868
</DataArray>
</Points>
<PointData>
<DataArray NumberOfComponents='1' type='Int32' Name='ParticleType' format='ascii'>
1
1
1
1
1
1
1
1
1
1
1
1
1
1
1
1
1
1
1
1
1
1
1
1
1
1
1
1
1
1
1
1
1
1
1
1
1
1
1
1
1
1
1
1
1
1
1
1
1
1
1
1
1
1
1
1
1
1
1
1
1
1
1
1
1
1
1
1
1
1
1
1
1
1
1
1
1
1
1
1
1
1
1
1
1
1
1
1
1
1
1
1
1
1
1
1
1
1
1
1
1
1
1
1
1
1
1
1
1
1
1
1
1
1
1
1
1
1
1
1
1
1
1
1
1
1
1
1
1
1
1
1
1
1
1
1
1
1
1
1
1
1
1
1
1
1
1
1
1
1
1
1
1
1
1
1
1
1
1
1
1
1
1
1
1
1
1
1
1
1
1
1
1
1
1
1
1
1
1
1
1
1
1
1
1
1
1
1
1
1
1
1
1
1
1
1
1
1
1
1
1
1
1
1
1
1
1
1
1
1
1
1
1
1
1
1
1
1
1
1
1
1
1
1
1
1
1
1
1
1
1
1
1
1
1
1
1
1
1
1
1
1
1
1
1
1
1
1
1
1
1
1
1
1
1
1
1
1
1
1
1
1
1
1
1
1
1
1
1
1
1
1
1
1
1
1
1
1
1
1
1
1
1
1
1
1
1
1
1
1
1
1
1
1
1
1
1
1
1
1
1
1
1
1
1
1
1
1
1
1
1
1
1
1
1
1
1
1
1
1
1
1
1
1
1
1
1
1
1
1
1
1
1
1
1
1
1
1
1
1
1
1
1
1
1
1
1
1
1
1
1
1
1
1
1
1
1
1
1
1
1
1
1
1
1
1
1
1
1
1
1
1
1
1
1
1
1
1
1
1
1
1
1
1
1
1
1
1
1
1
1
1
1
1
1
1
1
1
1
1
1
1
1
1
1
1
1
1
1
1
1
1
1
1
1
1
1
1
1
1
1
1
1
1
1
1
1
1
1
1
1
1
1
1
1
1
1
1
1
1
1
1
1
1
1
1
1
1
1
1
1
1
1
1
1
1
1
1
1
1
1
1
1
1
1
1
1
1
1
1
1
1
1
1
1
1
1
1
1
1
1
1
1
1
1
1
1
1
1
1
1
1
1
1
1
1
1
1
1
1
</DataArray>
<DataArray NumberOfComponents='1' type='Int32' Name='ParticleID' format='ascii'>
0
1
2
3
4
5
6
7
8
9
10
11
12
13
14
15
16
17
18
19
20
21
22
23
24
25
26
27
28
29
30
31
32
33
34
35
36
37
38
39
40
41
42
43
44
45
46
47
48
49
50
51
52
53
54
55
56
57
58
59
60
61
62
63
64
65
66
67
68
69
70
71
72
73
74
75
76
77
78
79
80
81
82
83
84
85
86
87
88
89
90
91
92
93
94
95
96
97
98
99
100
101
102
103
104
105
106
107
108
109
110
111
112
113
114
115
116
117
118
119
120
121
122
123
124
125
126
127
128
129
130
131
132
133
134
135
136
137
138
139
140
141
142
143
144
145
146
147
148
149
150
151
152
153
154
155
156
157
158
159
160
161
162
163
164
165
166
167
168
169
170
171
172
173
174
175
176
177
178
179
180
181
182
183
184
185
186
187
188
189
190
191
192
193
194
195
196
197
198
199
200
201
202
203
204
205
206
207
208
209
210
211
212
213
214
215
216
217
218
219
220
221
222
223
224
225
226
227
228
229
230
231
232
233
234
235
236
237
238
239
240
241
242
243
244
245
246
247
248
249
250
251
252
253
254
255
256
257
258
259
260
261
262
263
264
265
266
267
268
269
270
271
272
273
274
275
276
277
278
279
280
281
282
283
284
285
286
287
288
289
290
291
292
293
294
295
296
297
298
299
300
301
302
303
304
305
306
307
308
309
310
311
312
313
314
315
316
317
318
319
320
321
322
323
324
325
326
327
328
329
330
331
332
333
334
335
336
337
338
339
340
341
342
343
344
345
346
347
348
349
350
351
352
353
354
355
356
357
358
359
360
361
362
363
364
365
366
367
368
369
370
371
372
373
374
375
376
377
378
379
380
381
382
383
384
385
386
387
388
389
390
391
392
393
394
395
396
397
398
399
400
401
402
403
404
405
406
407
408
409
410
411
412
413
414
415
416
417
418
419
420
421
422
423
424
425
426
427
428
429
430
431
432
433
434
435
436
437
438
439
440
441
442
443
444
445
446
447
448
449
450
451
452
453
454
455
456
457
458
459
460
461
462
463
464
465
466
467
468
469
470
471
472
473
474
475
476
477
478
479
480
481
482
483
484
485
486
487
488
489
490
491
492
493
494
495
496
497
498
499
</DataArray>
<DataArray NumberOfComponents='1' type='Int8' Name='IsActive' format='ascii'>
1
1
1
1
1
1
1
1
1
1
1
1
1
1
1
1
1
1
1
1
1
1
1
1
1
1
1
1
1
1
1
1
1
1
1
1
1
1
1
1
1
1
1
1
1
1
1
1
1
1
1
1
1
1
1
1
1
1
1
1
1
1
1
1
1
1
1
1
1
1
1
1
1
1
1
1
1
1
1
1
1
1
1
1
1
1
1
1
1
1
1
1
1
1
1
1
1
1
1
1
1
1
1
1
1
1
1
1
1
1
1
1
1
1
1
1
1
1
1
1
1
1
1
1
1
1
1
1
1
1
1
1
1
1
1
1
1
1
1
1
1
1
1
1
1
1
1
1
1
1
1
1
1
1
1
1
1
1
1
1
1
1
1
1
1
1
1
1
1
1
1
1
1
1
1
1
1
1
1
1
1
1
1
1
1
1
1
1
1
1
1
1
1
1
1
1
1
1
1
1
1
1
1
1
1
1
1
1
1
1
1
1
1
1
1
1
1
1
1
1
1
1
1
1
1
1
1
1
1
1
1
1
1
1
1
1
1
1
1
1
1
1
1
1
1
1
1
1
1
1
1
1
1
1
1
1
1
1
1
1
1
1
1
1
1
1
1
1
1
1
1
1
1
1
1
1
1
1
1
1
1
1
1
1
1
1
1
1
1
1
1
1
1
1
1
1
1
1
1
1
1
1
1
1
1
1
1
1
1
1
1
1
1
1
1
1
1
1
1
1
1
1
1
1
1
1
1
1
1
1
1
1
1
1
1
1
1
1
1
1
1
1
1
1
1
1
1
1
1
1
1
1
1
1
1
1
1
1
1
1
1
1
1
1
1
1
1
1
1
1
1
1
1
1
1
1
1
1
1
1
1
1
1
1
1
1
1
1
1
1
1
1
1
1
1
1
1
1
1
1
1
1
1
1
1
1
1
1
1
1
1
1
1
1
1
1
1
1
1
1
1
1
1
1
1
1
1
1
1
1
1
1
1
1
1
1
1
1
1
1
1
1
1
1
1
1
1
1
1
1
1
1
1
1
1
1
1
1
1
1
1
1
1
1
1
1
1
1
1
1
1
1
1
1
1
1
1
1
1
1
1
1
1
1
1
1
1
1
1
1
1
1
1
1
1
1
1
1
1
1
</DataArray>
<DataArray NumberOfComponents='1' type='Int32' Name='ParticleTetID' format='ascii'>
12914
17711
87279
71702
77150
88115
23766
22091
12914
37934
41169
74251
41668
77792
52766
3844
11286
60464
331
25683
43782
101388
45980
41443
68052
59680
7488
9643
100560
8723
36228
18573
8604
45212
6641
78455
55501
90043
35335
66349
1093
86344
21155
63045
77923
83524
94294
42464
29839
44983
46153
80251
34373
100560
57004
43734
89191
19374
5565
26208
44914
29285
25514
35342
103877
65728
85290
7655
105827
84101
2776
12331
6641
37205
80251
5240
60379
47435
64672
913
99295
56353
21572
90043
65517
17735
57237
16167
31119
19997
7338
17481
27248
2591
18091
64197
99903
33555
70541
102145
103978
101500
3345
63384
29626
63087
82899
86696
37321
57699
29667
83143
66540
99749
63069
77194
12408
12023
101245
39038
100821
4165
23619
40126
59753
66355
9611
36316
9581
39097
44578
100092
2470
3266
104519
22691
52308
83238
33138
36821
73845
19507
61514
56669
71990
20471
41575
49942
6318
43760
71315
11787
50061
47301
4634
53079
41872
10463
99903
14424
2525
48924
17520
9581
102144
4704
40683
23054
23527
26446
97137
46463
35079
44291
408
5424
101445
30881
567
77150
27103
46700
71432
7717
101509
64090
8538
97137
7129
11625
102886
30350
2416
31812
71593
23766
86696
57258
48067
101028
67497
62946
87056
72130
27908
79133
100903
29285
51474
46751
36228
82842
19381
42206
84346
52272
18413
10758
972
82439
19857
11269
34013
76940
104962
65951
36206
49792
75679
18533
460
69970
62828
55703
53426
41254
26985
83682
51729
65223
81540
68540
33924
6446
77150
56627
55751
5978
1093
39223
68540
36228
53079
7964
35794
78914
78920
99980
27661
100807
28035
100807
28213
19857
56851
39851
12431
13572
8532
35269
82563
85474
16992
60000
35050
88739
26868
95232
60679
44384
40548
34138
41588
23619
21204
82334
80591
99871
3615
55427
17242
35769
53169
105051
59816
66838
71053
75648
20238
65284
82191
13934
40511
53169
93175
58592
22657
35124
74658
69508
55098
24893
11305
90043
708
100092
1992
92446
85598
3729
25282
61281
51898
17967
74099
36228
101063
20117
93303
38485
100092
27967
62083
102226
101354
103663
80898
51898
98826
34231
38467
89534
75254
40470
94294
29110
71593
65517
6544
103428
1366
39097
101245
5389
35921
28822
80510
41951
96183
20165
65517
39765
70468
14545
27297
84817
26196
100743
25821
42214
39319
77116
42860
41830
48782
22418
3301
87019
60
29839
63289
76045
43397
92006
60317
46133
16683
26650
59136
101043
54235
6132
33908
51847
90043
98108
105827
99126
24102
70976
61720
101509
38659
94926
50021
104156
11961
39851
12775
48782
105054
6794
33410
63562
79802
55211
79155
44800
3954
51923
71997
72579
30108
71025
90558
9304
24102
94532
35370
59680
29536
14058
55957
68148
25951
49331
6650
93237
104885
86952
33421
39804
45608
46979
69512
101750
69822
2176
35461
33088
90920
29661
6720
27824
76206
66838
49272
15053
20220
29227
27297
60222
20319
88021
61640
71644
1093
10534
94366
25392
100560
61880
94926
15033
844
3330
101063
10445
34467
33720
95063
2551
101063
72022
10923
14545
39319
10923
11269
46107
7555
97321
23166
73336
10092
708
24715
36906
5473
35079
</DataArray>
<DataArray NumberOfComponents='3' type='Float32' Name='vels' format='ascii'>
13.121753 0.750252 0.002995
40.011205 11.004523 0.033633
1.651312 0.010426 0.001375
24.331346 8.044980 0.008493
30.013738 -8.774687 0.005198
0.847025 0.027758 0.004647
38.931305 0.166038 0.023885
13.305559 2.050659 -0.028887
13.791547 0.789507 0.002229
7.464980 0.348169 -0.001354
11.097027 -0.439478 -0.001213
1.447660 -0.001802 -0.010260
9.146051 0.326004 0.000133
4.375809 -0.055125 0.000652
18.406861 1.073306 -0.004729
31.505957 0.077216 0.018176
14.560107 -1.911634 -0.001395
14.551740 0.674558 0.017185
9.549682 0.077923 0.008839
36.968722 -0.234741 0.012031
28.448688 8.323248 -0.000034
0.024546 0.052777 -0.004901
38.119858 0.413031 -0.033425
2.133188 0.011415 0.012787
14.023940 -0.016526 0.021470
28.326580 -10.209734 0.004536
3.597068 -0.522051 -0.124513
43.682727 3.340122 0.014156
-0.060738 0.052849 -0.006396
6.169808 0.016257 -0.020815
32.991065 -11.630422 -0.003861
2.850597 -0.018786 0.001935
7.266276 0.025814 -0.012875
19.828785 12.508824 0.046572
10.052287 0.099908 0.021556
10.626236 3.050147 0.001207
40.148289 -0.301865 -0.023195
35.513568 1.492248 0.028438
2.188008 0.268170 0.002338
14.971463 -0.824437 -0.028349
8.811745 -0.144223 0.014748
3.831850 -0.048268 0.000089
2.185571 -0.013789 -0.000557
4.528378 -0.008105 -0.001959
30.971673 -11.986995 -0.001813
-0.043881 0.007773 -0.002398
0.027059 0.023881 -0.001737
40.256503 -5.368543 -0.008928
15.006253 0.603854 0.011534
13.704769 3.720211 -0.003170
33.720378 0.147788 0.058029
0.080184 -0.029377 0.010375
31.463427 12.332605 -0.005867
0.085914 0.040823 -0.014187
7.437451 -0.080798 0.000099
9.159700 -0.676740 0.008584
5.750503 0.071680 -0.005298
11.174001 -0.842442 0.022414
21.541095 0.684260 0.083328
4.261085 0.035887 -0.051595
8.871239 -0.305289 -0.002207
33.772415 -0.004532 0.034092
1.475742 0.004457 0.001065
14.075837 6.336107 0.003381
17.422505 4.062063 0.007509
1.403551 0.002508 -0.002014
9.506072 -0.329900 -0.003713
18.420605 0.130181 -0.037859
12.500328 -0.500842 0.010474
27.559764 -2.409574 0.026394
36.893252 2.657386 -0.015631
8.424399 -0.170534 -0.001792
9.282185 0.078188 -0.001289
33.552395 -0.080986 -0.018432
0.124800 0.008426 0.000708
9.191815 0.267286 -0.000493
17.486349 8.727221 -0.009004
38.420557 3.106303 0.020449
41.892606 -8.419952 -0.019395
39.778744 -1.525169 -0.046540
-0.058612 -0.013017 -0.004097
43.351266 -1.484327 0.036562
16.056358 1.223732 -0.057572
35.485089 1.589070 0.026786
26.548202 -5.266613 0.003028
3.445097 -0.040953 0.000560
11.146054 0.059052 0.013323
44.051683 8.763350 -0.002086
26.520365 -3.082895 0.013758
39.931563 0.047687 0.003344
7.116132 0.206929 -0.000905
33.493727 0.043318 -0.026171
33.020969 -13.098153 -0.005575
12.483038 -1.631091 -0.008717
45.908348 1.481851 -0.017437
0.496670 -0.000230 -0.001196
0.186305 0.055624 -0.009019
22.643953 6.078667 0.049627
14.523441 1.593187 -0.011112
16.276249 -0.472598 0.002167
13.508161 -3.819181 -0.030772
0.188286 0.013918 -0.033331
30.755160 -5.356609 0.015668
36.171273 1.814737 0.163049
28.982903 -6.613990 -0.025311
41.433647 0.221115 -0.006148
35.183179 2.952797 0.167810
27.650758 6.451975 -0.007008
28.658266 -5.973329 0.002322
11.484759 -0.205804 -0.005831
31.602602 -0.296560 0.000202
4.895626 -4.842899 0.128784
4.314190 0.066168 0.004040
39.427890 1.438245 0.102395
11.079900 0.633387 -0.004132
13.445595 3.127215 -0.004610
36.726400 -2.938311 0.118080
25.716926 1.065459 -0.026056
0.074892 0.007131 -0.025525
4.798671 -0.058614 -0.085538
0.933406 -0.018128 -0.001304
11.619351 -0.611397 0.004633
15.286965 0.734625 -0.001149
29.159931 -4.664485 -0.004218
16.267805 5.705841 -0.001538
13.379894 0.259435 -0.004724
31.633209 6.790962 -0.014401
16.007983 9.105602 0.006603
27.830239 -4.623294 0.009775
14.020854 -0.607149 -0.015875
7.326099 -0.176511 0.001633
0.054903 0.022105 -0.008883
26.765529 0.061987 0.054341
16.938954 -1.257693 -0.060714
28.865554 -12.240034 -0.166073
16.854000 -7.197898 0.018640
6.252620 -2.238240 0.016572
38.126782 -12.521754 -0.001248
12.642936 0.132877 0.002570
5.442753 -0.012963 0.000357
37.460429 1.511531 -0.011542
15.818416 3.550948 -0.010805
11.545540 -3.658650 -0.003926
30.587644 10.539966 -0.006578
32.836009 -8.254902 -0.004672
6.161018 0.018585 -0.013057
9.360570 -0.023986 -0.022955
38.242344 0.244309 0.013623
13.953144 -3.405456 -0.023524
10.867358 -2.243810 0.002636
31.327649 -3.651635 0.035700
12.138290 0.698103 0.019054
29.013720 8.137368 0.006313
28.688542 -7.059541 -0.030282
8.969893 0.039043 0.026144
8.318025 0.055206 -0.010475
8.184517 -0.015364 0.016942
8.645596 -0.566880 0.004918
-0.060177 -0.005633 0.011649
7.967065 0.339285 -0.017197
29.290662 12.164292 0.057560
9.428580 0.070589 0.017421
36.586313 -1.266971 0.020981
21.035539 -4.723612 0.089277
7.641712 -0.174265 0.006192
37.114909 11.918534 0.047262
30.142830 4.535018 0.054918
23.565211 14.505472 -0.217392
10.085492 -0.045468 0.045688
7.436810 -0.077389 0.033198
0.028531 -0.006059 0.001383
25.783291 -4.684023 0.008265
27.322346 -9.808446 -0.009925
18.183515 1.356686 -0.003825
21.807533 -12.460597 0.223028
26.370839 13.434674 0.105631
0.374831 -0.005237 0.003116
25.389022 12.436873 -0.008143
22.766903 11.190802 0.018603
30.072790 -9.157465 0.002520
41.209811 1.756359 -0.074311
10.640711 0.259772 -0.004815
5.817291 -0.970774 0.014234
13.915298 0.336701 0.076642
-0.014123 -0.002384 0.022308
23.033232 2.374839 -0.053205
16.433001 1.195867 -0.038738
0.033935 -0.001322 -0.007797
44.086698 1.068519 -0.002202
3.973690 0.063796 0.001318
35.870216 -5.145556 0.026995
23.217030 -12.213505 -0.086233
28.802716 6.954051 -0.012917
41.571310 0.233391 0.053485
0.515341 -0.150919 -0.019953
42.155401 0.316377 0.016986
28.628061 7.260543 0.003640
9.337524 -0.049703 0.022331
36.108762 4.793239 -0.020267
10.282122 -0.472475 0.001162
30.077401 -9.235076 0.017452
33.843124 0.169942 -0.026618
5.017274 0.041430 0.006431
19.445712 -5.957039 0.014986
5.893776 -0.040464 -0.018418
26.181895 6.492507 0.006290
0.092559 0.048124 -0.003023
33.375381 -0.002357 0.028809
30.858919 -0.981113 0.042344
2.979847 0.000855 0.000127
31.499181 -10.980473 -0.000545
35.578463 -12.962274 0.002198
36.726644 -2.501094 -0.001615
28.109298 1.494085 0.080735
10.392554 -0.216084 0.008575
29.380126 7.677984 0.012606
39.882872 1.428399 -0.103240
17.005063 5.902758 -0.000470
40.206267 -0.266157 0.041692
0.226185 -0.005189 0.000293
33.569894 -7.665020 0.001488
8.341182 -4.069262 -0.021138
15.883180 -0.444372 0.009540
32.098217 10.991258 -0.054492
31.152990 -7.767370 -0.024319
2.938742 -0.004580 0.001129
31.221197 11.769866 -0.108053
5.234075 0.023790 -0.000326
11.854172 -0.084655 0.018760
11.059962 -2.399867 -0.013279
20.505507 -4.758714 -0.016229
0.137750 -0.031834 0.010496
4.767660 0.047823 -0.000256
28.976240 6.054663 0.005215
13.309571 -0.324511 0.002143
3.997119 0.060385 0.028782
39.375884 -1.657577 -0.048808
8.632827 0.923971 0.005084
40.645721 -2.436406 -0.021201
11.647205 0.036849 -0.003555
5.869931 -0.051218 -0.003639
11.430430 1.967063 -0.005921
12.050683 -10.319548 -0.072562
15.331346 -8.367073 0.017507
28.098479 -7.500433 -0.001073
7.341171 -0.139179 -0.002701
12.976860 3.242924 -0.002723
4.329700 -0.004073 -0.008625
8.131963 -0.090232 0.052543
15.231714 -0.104922 -0.035577
12.644454 2.466730 -0.005163
31.560627 -12.054915 -0.005152
12.459675 0.061061 0.031438
11.394696 0.153105 -0.050186
28.222166 0.908145 0.042433
6.888208 -0.164863 -0.000248
4.499415 5.669051 -0.076214
0.032244 0.000582 0.044783
1.812922 -0.013698 -0.004534
0.082509 0.030108 -0.024703
43.653910 0.598200 0.002865
0.167015 -0.035211 0.026926
33.305152 1.189815 0.038694
37.148890 -9.427317 -0.009327
39.318602 -3.429390 -0.040043
34.668265 -0.005456 -0.029134
4.600245 -0.035241 -0.000043
3.154665 -6.162368 -0.128097
37.764494 0.745289 0.087948
4.398049 0.080783 -0.001682
33.398395 0.435859 -0.034989
-0.003619 -0.000555 -0.006405
35.747404 11.300650 0.018025
25.395520 -14.672604 0.111170
35.894350 12.177194 0.019669
38.849304 1.185604 0.098057
19.450564 -14.791379 -0.181893
30.214675 7.455972 0.003624
28.617049 2.711550 -0.045407
40.829816 -0.027007 -0.000377
28.911615 0.868200 0.053687
35.798993 0.036508 0.006625
11.250043 -0.479500 -0.002651
15.987867 0.795443 -0.019128
9.829003 -3.087270 -0.002887
9.242885 -0.492509 -0.006355
21.528312 -2.153051 -0.065296
0.076986 0.002602 0.000850
35.026772 0.084265 -0.027807
13.039747 0.108190 -0.005504
10.791309 0.622752 0.011160
41.324881 -0.358562 0.006163
29.696980 -10.256721 -0.004112
11.360770 -0.264633 0.008642
6.796533 -0.031308 -0.003363
10.785819 2.187497 -0.001093
31.047006 -1.451975 0.063685
9.631090 -0.943053 -0.002452
2.946745 5.566786 -0.088176
7.461995 -0.043512 0.000537
4.369688 2.002627 0.117246
37.528644 1.259402 0.016217
19.405389 2.958848 -0.001766
29.882078 -9.271015 -0.008452
9.851366 2.535388 -0.009557
17.699528 -4.284175 -0.004197
39.469740 -2.002046 -0.060352
11.382273 0.284699 -0.014766
7.921741 -0.057616 -0.002161