<VTKFile type='UnstructuredGrid' version='1.0' byte_order='LittleEndian' header_type='UInt64'>
<UnstructuredGrid>
<Piece NumberOfCells='500' NumberOfPoints='500'>
<Points>
<DataArray NumberOfComponents='3' type='Float32' Name='Position' format='ascii'>
1.002904 0.773381 0.227544
2.041913 0.322548 0.117272
0.235974 0.978624 0.221460
2.032789 0.817449 0.183718
2.006422 0.772777 0.106364
0.121807 0.192250 0.246668
2.021840 0.236634 0.075397
1.627758 0.859442 0.208956
0.967245 0.756309 0.224041
0.963160 0.847150 0.228517
1.098610 0.129985 0.035053
0.205113 0.007279 0.058651
0.932371 0.628438 0.219242
0.548155 0.247058 0.237515
1.214886 0.849244 0.215624
2.029884 0.896507 0.149988
1.653171 0.212442 0.204479
1.566896 0.949172 0.161610
0.760427 0.819298 0.218985
2.028493 0.103892 0.112536
2.053310 0.240382 0.149626
0.010608 0.100930 0.236005
2.013011 0.752185 0.079681
0.264210 0.991669 0.150876
2.010016 0.889759 0.129730
2.047684 0.745451 0.119795
1.162869 0.496020 0.093398
2.034071 0.303870 0.160488
0.037127 0.849844 0.003849
0.711609 0.942954 0.220463
2.049422 0.718082 0.151819
0.461922 0.308772 0.241994
0.761930 0.966034 0.185294
2.022542 0.715620 0.181877
1.178861 0.977955 0.129419
1.638600 0.715251 0.202220
2.032977 0.238094 0.074622
2.000648 0.118576 0.122908
1.350582 0.791370 0.044726
1.637126 0.064944 0.068345
0.889753 0.068757 0.215663
0.502499 0.286328 0.239652
0.297529 0.291904 0.006724
0.503035 0.037859 0.031827
2.007880 0.710244 0.115067
0.153019 0.525989 0.008170
0.029687 0.127592 0.019551
2.001995 0.747523 0.166309
1.558337 0.952981 0.106439
1.776999 0.705734 0.199315
2.034140 0.855777 0.176953
0.022148 0.667554 0.223892
2.008327 0.295468 0.130869
0.040358 0.850127 0.002079
0.842059 0.463314 0.227369
1.282087 0.189094 0.208034
0.667905 0.867888 0.230636
1.067255 0.240211 0.037241
2.020040 0.916381 0.117455
0.871751 0.037506 0.166453
0.981238 0.157324 0.026984
2.033928 0.852710 0.179680
0.188645 0.993357 0.194343
1.887537 0.681782 0.190717
1.724443 0.743754 0.044352
0.169960 0.724180 0.003288
0.927084 0.278969 0.029903
2.031539 0.915199 0.125560
1.202739 0.059918 0.205289
2.018562 0.097872 0.154440
2.032726 0.151930 0.157049
0.903568 0.411385 0.026534
1.018394 0.979345 0.114494
2.012379 0.857800 0.088540
0.041667 0.652966 0.243482
0.908033 0.668645 0.028921
1.855644 0.717726 0.054394
2.006612 0.733044 0.069206
2.032027 0.708061 0.156368
2.047422 0.659033 0.158041
0.176757 0.208706 0.213512
2.008623 0.671327 0.150335
1.566271 0.945951 0.068031
2.000212 0.119345 0.120454
2.027649 0.788814 0.122788
0.513695 0.249794 0.239250
0.671796 0.968032 0.185898
2.037782 0.301018 0.135393
1.958641 0.077648 0.105826
2.037639 0.231862 0.074891
0.824303 0.631232 0.021874
2.043692 0.901627 0.126913
2.041219 0.688146 0.137356
1.491527 0.134743 0.040395
2.033186 0.327317 0.104475
0.145129 0.612137 0.248577
0.029003 0.560442 0.249009
1.983328 0.815607 0.194444
1.655789 0.878802 0.048659
1.332066 0.079427 0.201815
1.735436 0.207126 0.046249
0.088462 0.980445 0.171254
2.030091 0.839346 0.098504
2.033268 0.354557 0.077770
2.041484 0.819601 0.133527
2.016896 0.735843 0.177114
2.005133 0.350592 0.093012
2.030378 0.211665 0.125291
2.051344 0.818365 0.128576
1.292970 0.026004 0.115229
2.015030 0.096685 0.090606
1.723601 0.367044 0.184011
0.292615 0.908783 0.241736
2.022922 0.372593 0.103430
1.239696 0.850221 0.214551
1.690115 0.794998 0.040615
2.020701 0.649097 0.095229
2.010562 0.904400 0.171377
0.031917 0.992507 0.221925
1.138125 0.499638 0.069268
0.083245 0.043236 0.005296
1.223852 0.157308 0.212514
1.579724 0.943737 0.156327
1.826550 0.057351 0.123084
1.850986 0.730581 0.186343
0.878170 0.920093 0.028024
2.022575 0.188149 0.135854
1.934511 0.683727 0.190314
2.023163 0.803616 0.100864
1.354354 0.065858 0.038165
0.924453 0.117818 0.225199
0.012148 0.503820 0.222848
2.015481 0.887887 0.167531
1.701813 0.058695 0.147334
2.024290 0.352007 0.073397
1.919163 0.255970 0.052230
1.643774 0.297963 0.201141
2.018896 0.681016 0.127061
0.476026 0.984234 0.100512
0.705549 0.490472 0.233978
2.018782 0.639498 0.119193
1.818231 0.742679 0.049265
1.665100 0.249416 0.039709
2.020581 0.271387 0.143559
2.029636 0.772421 0.161292
0.645235 0.971656 0.190095
0.530260 0.017384 0.102257
2.030579 0.775512 0.178289
1.739877 0.246423 0.047593
1.633731 0.224917 0.039803
2.030297 0.105648 0.171593
1.426352 0.925290 0.207515
2.007401 0.237211 0.132114
2.043957 0.792899 0.145899
0.996208 0.973277 0.087480
0.882306 0.970206 0.174334
0.645918 0.036894 0.161248
1.021796 0.247565 0.033585
0.035650 0.566946 0.249391
0.899958 0.634868 0.224870
2.031014 0.717976 0.184907
1.009563 0.969698 0.177562
2.015580 0.844944 0.092940
2.035106 0.799893 0.114166
0.999647 0.089822 0.224891
2.022126 0.726487 0.178634
2.027879 0.840318 0.184213
2.017479 0.630500 0.093234
0.953527 0.033135 0.168631
0.570254 0.031297 0.167807
0.038958 0.987356 0.128350
2.017105 0.149523 0.065801
2.002765 0.755692 0.135449
1.205461 0.845909 0.216710
2.024452 0.367358 0.155246
2.029788 0.686933 0.179488
0.047683 0.984885 0.005979
2.043170 0.614473 0.123196
2.022747 0.721939 0.186483
2.054804 0.758295 0.109029
2.041637 0.681193 0.088195
1.157347 0.923852 0.040752
1.502599 0.186145 0.209141
1.261138 0.965027 0.175528
0.031766 0.017381 0.079846
1.986680 0.912067 0.090035
1.648211 0.932825 0.071689
0.038575 0.989013 0.137794
2.043955 0.337547 0.127159
0.607170 0.792514 0.237973
2.014167 0.830135 0.092786
2.021179 0.297030 0.060840
2.006074 0.222603 0.150129
2.012553 0.718654 0.076826
0.121206 0.879588 0.246353
2.014067 0.221852 0.075742
2.022074 0.220839 0.125137
0.793698 0.038393 0.157703
2.024098 0.190148 0.166427
1.265258 0.070869 0.036279
2.031926 0.750208 0.100893
2.032816 0.780082 0.070591
0.581161 0.904249 0.018299
1.953152 0.227303 0.056076
0.662362 0.029182 0.190998
2.032852 0.230892 0.118425
0.014534 0.160338 0.234903
2.019598 0.843053 0.176573
2.016902 0.101517 0.145640
0.476763 0.476203 0.241277
2.045287 0.712677 0.129932
2.035427 0.694947 0.126864
2.048916 0.864810 0.125488
2.001647 0.913888 0.124021
1.116114 0.056868 0.042126
2.035264 0.224157 0.103852
2.025508 0.345656 0.154944
1.956174 0.727967 0.064352
2.008734 0.276993 0.174787
0.145505 0.027339 0.023395
2.014314 0.785718 0.158959
1.642974 0.345478 0.059542
0.924151 0.104461 0.024172
2.027677 0.625261 0.106097
2.002812 0.754347 0.144586
1.119593 0.025826 0.127953
2.012800 0.666294 0.074063
0.669475 0.539388 0.014632
0.707756 0.022110 0.098648
1.481630 0.219494 0.204650
1.881980 0.186724 0.053311
0.040248 0.707683 0.240922
0.613646 0.603638 0.014254
2.037639 0.183166 0.137945
1.204795 0.034166 0.169581
0.358549 0.970222 0.215447
2.030415 0.333994 0.097299
1.226483 0.801176 0.033442
2.021489 0.647323 0.134533
0.720270 0.936062 0.206729
0.710721 0.101585 0.021361
1.531066 0.789126 0.209904
1.929004 0.344770 0.064387
1.951409 0.326313 0.185028
2.017192 0.772864 0.111412
1.038835 0.501373 0.056214
1.617776 0.750715 0.043275
0.435862 0.980779 0.160148
1.031296 0.073135 0.214381
0.718695 0.189601 0.024561
1.711024 0.718484 0.202256
2.005690 0.712882 0.141472
0.786802 0.982526 0.141673
1.274539 0.971737 0.115295
2.019636 0.910267 0.135929
0.856159 0.357223 0.228221
1.806844 0.585800 0.097210
0.032983 0.995116 0.046299
0.218554 0.793429 0.005577
0.005680 0.624004 0.215549
2.007652 0.682386 0.138880
0.127512 0.618518 0.238543
2.005989 0.126293 0.114610
2.008474 0.747795 0.153841
2.001298 0.857592 0.150809
2.025124 0.119820 0.148109
0.510565 0.391403 0.013383
1.829358 0.402924 0.107224
2.024485 0.316321 0.073033
0.688879 0.797175 0.232802
2.013345 0.882962 0.090390
0.036891 0.189150 0.013398
2.015784 0.275097 0.093220
2.010821 0.308547 0.173000
2.033909 0.289244 0.112282
2.042875 0.331086 0.077792
2.039336 0.339690 0.068817
2.034917 0.195737 0.108191
1.937064 0.920704 0.104151
2.027577 0.749487 0.077519
2.000638 0.887062 0.082849
2.043238 0.860607 0.086299
1.289751 0.067074 0.036822
1.610366 0.949004 0.106195
1.714743 0.307805 0.199496
1.196569 0.102758 0.028038
1.996896 0.112746 0.071416
0.093423 0.965086 0.238928
2.018576 0.840891 0.076544
0.782715 0.780423 0.031097
1.359181 0.926030 0.210990
2.003428 0.277166 0.164066
2.040073 0.728954 0.132857
0.896963 0.457015 0.210740
0.759050 0.059617 0.033830
1.563499 0.795348 0.037210
2.038919 0.091718 0.151174
1.427407 0.105487 0.037802
1.755172 0.582698 0.109449
0.827880 0.474818 0.227420
1.010826 0.643166 0.177290
2.010992 0.147421 0.096275
1.712146 0.856003 0.208914
2.038118 0.748146 0.141266
1.454024 0.810061 0.215551
1.731953 0.221056 0.043503
2.038461 0.336184 0.102265
1.333717 0.970661 0.123828
0.743480 0.126655 0.028309
1.259880 0.956963 0.069648
1.915174 0.238347 0.060778
0.776305 0.482649 0.017662
1.368263 0.956082 0.079900
2.026656 0.128085 0.135971
1.897650 0.083130 0.150568
0.013491 0.509727 0.234432
1.712039 0.258665 0.042205
0.774074 0.277697 0.232553
1.786672 0.933550 0.118005
2.012230 0.680055 0.167305
1.755042 0.759403 0.043934
2.025570 0.769084 0.186028
1.387105 0.803696 0.035283
0.453101 0.981985 0.196900
0.039482 0.426297 0.017016
2.002534 0.716035 0.146029
0.028962 0.374229 0.239276
0.842324 0.051326 0.037534
2.028122 0.221336 0.119898
2.000288 0.313538 0.179206
0.013776 0.514272 0.241573
0.667943 0.425839 0.229046
0.591587 0.034391 0.043575
2.023364 0.091646 0.073414
0.007811 0.605221 -0.000325
1.939470 0.095795 0.077620
1.174709 0.784040 0.041444
1.283206 0.814100 0.032454
0.008963 0.279943 0.235470
2.048770 0.749451 0.090866
2.029164 0.787634 0.187305
0.985433 0.683023 0.039795
2.001214 0.102727 0.166548
0.724082 0.970235 0.068224
0.160251 0.134784 0.025853
2.016937 0.339622 0.074967
0.018953 0.890552 0.250145
2.000588 0.799573 0.125313
1.708317 0.621639 0.067544
1.352249 0.780757 0.202988
2.028930 0.271324 0.174884
1.365194 0.065136 0.042575
0.094358 0.981047 0.216253
2.026492 0.348990 0.140628
0.797111 0.916748 0.226213
1.945108 0.598231 0.082036
0.211451 0.009734 0.208102
1.808593 0.931346 0.137336
1.573372 0.903613 0.206092
1.244717 0.939690 0.043653
2.025588 0.792722 0.125310
2.036936 0.079405 0.138733
0.681387 0.956407 0.202043
2.006244 0.790524 0.087015
0.462550 0.026470 0.041394
0.475005 0.020270 0.163787
1.008135 0.382640 0.071821
0.018031 0.746805 0.011094
2.007610 0.172173 0.078813
1.359581 0.134879 0.214720
1.054244 0.490984 0.056133
0.100940 0.531768 0.228746
2.020352 0.301361 0.168629
1.100218 0.921272 0.035741
2.054257 0.245705 0.112442
1.039390 0.457219 0.106953
1.891878 0.902870 0.181884
1.213874 0.077178 0.216853
1.867088 0.343431 0.187615
1.540252 0.959759 0.141153
2.040402 0.096788 0.101012
1.884587 0.105836 0.184725
0.533927 0.034941 0.212649
2.038295 0.102904 0.177095
1.915968 0.405801 0.145479
0.826956 0.963738 0.087541
2.020001 0.799353 0.160508
2.012249 0.715509 0.135389
0.637003 0.981570 0.093266
0.034259 -0.000089 0.183998
1.619798 0.921117 0.056870
0.462315 0.483506 0.008234
2.047931 0.313367 0.104281
1.892992 0.366770 0.188360
2.033696 0.125638 0.135117
1.090633 0.814374 0.027838
1.270130 0.067424 0.210615
0.083894 0.984501 0.021741
2.001362 0.282336 0.081177
0.914746 0.369765 0.219937
2.016776 0.724579 0.168284
0.015016 0.013201 0.083385
2.007751 0.161367 0.097244
0.195366 0.957874 0.016920
1.747326 0.928375 0.078180
1.140688 0.056624 0.207954
1.569254 0.765470 0.206188
2.023007 0.116935 0.149028
1.881336 0.675118 0.193535
2.049318 0.245117 0.121517
1.077637 0.239060 0.212000
1.861629 0.201105 0.050605
1.174386 0.036094 0.175603
0.293465 0.989574 0.169762
2.017891 0.273142 0.089601
0.842100 0.059717 0.033683
2.001818 0.350240 0.144337
2.018226 0.826991 0.177203
1.073998 0.506885 0.192227
2.040798 0.271093 0.087862
1.920021 0.792749 0.053963
0.583954 0.094554 0.018814
0.834851 0.921585 0.220624
2.010548 0.695931 0.089083
1.615647 0.273761 0.199156
1.588912 0.683803 0.057157
2.024173 0.282589 0.075697
1.106253 0.828584 0.225025
1.912351 0.095955 0.159087
2.039833 0.740614 0.110457
1.820464 0.372467 0.071386
0.686843 0.033078 0.193772
2.035768 0.751377 0.149175
2.021132 0.167951 0.105210
1.683341 0.386993 0.133439
0.716411 0.547648 0.016759
1.677368 0.290873 0.199875
2.033975 0.332578 0.095046
2.024310 0.858399 0.143123
0.866894 0.337811 0.024397
1.993246 0.075405 0.120179
1.756592 0.843131 0.044081
2.033033 0.715423 0.127692
2.040083 0.091923 0.085418
1.442507 0.249290 0.109243
1.874091 0.261151 0.048404
1.943864 0.187720 0.195995
1.618125 0.083252 0.200668
2.015052 0.920555 0.112129
0.233314 0.617427 0.003331
0.084743 0.685998 0.247892
1.871542 0.096814 0.181930
1.221589 0.145868 0.030889
1.972972 0.379623 0.079076
0.270118 0.638770 0.011733
1.589403 0.796667 0.042628
1.156331 0.160879 0.220773
2.019767 0.325567 0.131726
2.010451 0.114133 0.153634
1.339603 0.203650 0.210771
0.442675 0.024497 0.040484
1.606653 0.898617 0.044155
2.008738 0.657800 0.178482
0.040757 0.572698 0.014322
0.905276 0.551107 0.218038
0.930893 0.034666 0.161911
0.917013 0.058730 0.214125
2.024197 0.296343 0.159639
0.905179 0.766099 0.020769
2.003979 0.189402 0.181230
0.043977 0.851614 0.000729
1.062438 0.908114 0.221688
0.170331 0.953067 0.011366
0.126008 0.003327 0.208331
2.007821 0.839730 0.099613
1.503206 0.069606 0.199650
0.027658 0.375028 0.238760
1.197075 0.930262 0.035626
1.917030 0.672184 0.194377
1.169801 0.509346 0.126665
0.042481 0.938951 0.001528
1.718595 0.253501 0.206109
0.019534 0.386927 0.244797
2.042207 0.866436 0.076275
0.783927 0.954062 0.051398
2.005977 0.763890 0.090744
1.048187 0.496447 0.054743
0.771017 0.955840 0.051942
1.641912 0.343239 0.057209
1.605410 0.698053 0.203978
1.478271 0.953873 0.089695
1.350011 0.969014 0.108702
0.530040 0.976608 0.072721
0.512908 0.020143 0.057613
0.733272 0.033103 0.175183
1.866087 0.074905 0.157668
2.007864 0.166258 0.184835
1.618975 0.095414 0.199790
1.982854 0.828806 0.185514
2.009141 0.738372 0.125480
</DataArray>
</Points>
<PointData>
<DataArray NumberOfComponents='1' type='Int32' Name='ParticleType' format='ascii'>
1
1
1
1
1
1
1
1
1
1
1
1
1
1
1
1
1
1
1
1
1
1
1
1
1
1
1
1
1
1
1
1
1
1
1
1
1
1
1
1
1
1
1
1
1
1
1
1
1
1
1
1
1
1
1
1
1
1
1
1
1
1
1
1
1
1
1
1
1
1
1
1
1
1
1
1
1
1
1
1
1
1
1
1
1
1
1
1
1
1
1
1
1
1
1
1
1
1
1
1
1
1
1
1
1
1
1
1
1
1
1
1
1
1
1
1
1
1
1
1
1
1
1
1
1
1
1
1
1
1
1
1
1
1
1
1
1
1
1
1
1
1
1
1
1
1
1
1
1
1
1
1
1
1
1
1
1
1
1
1
1
1
1
1
1
1
1
1
1
1
1
1
1
1
1
1
1
1
1
1
1
1
1
1
1
1
1
1
1
1
1
1
1
1
1
1
1
1
1
1
1
1
1
1
1
1
1
1
1
1
1
1
1
1
1
1
1
1
1
1
1
1
1
1
1
1
1
1
1
1
1
1
1
1
1
1
1
1
1
1
1
1
1
1
1
1
1
1
1
1
1
1
1
1
1
1
1
1
1
1
1
1
1
1
1
1
1
1
1
1
1
1
1
1
1
1
1
1
1
1
1
1
1
1
1
1
1
1
1
1
1
1
1
1
1
1
1
1
1
1
1
1
1
1
1
1
1
1
1
1
1
1
1
1
1
1
1
1
1
1
1
1
1
1
1
1
1
1
1
1
1
1
1
1
1
1
1
1
1
1
1
1
1
1
1
1
1
1
1
1
1
1
1
1
1
1
1
1
1
1
1
1
1
1
1
1
1
1
1
1
1
1
1
1
1
1
1
1
1
1
1
1
1
1
1
1
1
1
1
1
1
1
1
1
1
1
1
1
1
1
1
1
1
1
1
1
1
1
1
1
1
1
1
1
1
1
1
1
1
1
1
1
1
1
1
1
1
1
1
1
1
1
1
1
1
1
1
1
1
1
1
1
1
1
1
1
1
1
1
1
1
1
1
1
1
1
1
1
1
1
1
1
1
1
1
1
1
1
1
1
1
1
1
1
1
1
1
1
1
1
1
1
1
1
1
1
1
1
1
1
1
1
1
1
1
1
1
1
1
1
</DataArray>
<DataArray NumberOfComponents='1' type='Int32' Name='ParticleID' format='ascii'>
0
1
2
3
4
5
6
7
8
9
10
11
12
13
14
15
16
17
18
19
20
21
22
23
24
25
26
27
28
29
30
31
32
33
34
35
36
37
38
39
40
41
42
43
44
45
46
47
48
49
50
51
52
53
54
55
56
57
58
59
60
61
62
63
64
65
66
67
68
69
70
71
72
73
74
75
76
77
78
79
80
81
82
83
84
85
86
87
88
89
90
91
92
93
94
95
96
97
98
99
100
101
102
103
104
105
106
107
108
109
110
111
112
113
114
115
116
117
118
119
120
121
122
123
124
125
126
127
128
129
130
131
132
133
134
135
136
137
138
139
140
141
142
143
144
145
146
147
148
149
150
151
152
153
154
155
156
157
158
159
160
161
162
163
164
165
166
167
168
169
170
171
172
173
174
175
176
177
178
179
180
181
182
183
184
185
186
187
188
189
190
191
192
193
194
195
196
197
198
199
200
201
202
203
204
205
206
207
208
209
210
211
212
213
214
215
216
217
218
219
220
221
222
223
224
225
226
227
228
229
230
231
232
233
234
235
236
237
238
239
240
241
242
243
244
245
246
247
248
249
250
251
252
253
254
255
256
257
258
259
260
261
262
263
264
265
266
267
268
269
270
271
272
273
274
275
276
277
278
279
280
281
282
283
284
285
286
287
288
289
290
291
292
293
294
295
296
297
298
299
300
301
302
303
304
305
306
307
308
309
310
311
312
313
314
315
316
317
318
319
320
321
322
323
324
325
326
327
328
329
330
331
332
333
334
335
336
337
338
339
340
341
342
343
344
345
346
347
348
349
350
351
352
353
354
355
356
357
358
359
360
361
362
363
364
365
366
367
368
369
370
371
372
373
374
375
376
377
378
379
380
381
382
383
384
385
386
387
388
389
390
391
392
393
394
395
396
397
398
399
400
401
402
403
404
405
406
407
408
409
410
411
412
413
414
415
416
417
418
419
420
421
422
423
424
425
426
427
428
429
430
431
432
433
434
435
436
437
438
439
440
441
442
443
444
445
446
447
448
449
450
451
452
453
454
455
456
457
458
459
460
461
462
463
464
465
466
467
468
469
470
471
472
473
474
475
476
477
478
479
480
481
482
483
484
485
486
487
488
489
490
491
492
493
494
495
496
497
498
499
</DataArray>
<DataArray NumberOfComponents='1' type='Int8' Name='IsActive' format='ascii'>
1
0
1
0
0
1
0
1
1
1
1
1
1
1
1
0
1
1
1
0
0
1
0
1
0
0
1
0
1
1
0
1
1
0
1
1
0
0
1
1
1
1
1
1
0
1
1
0
1
1
0
1
0
1
1
1
1
1
1
1
1
0
1
1
1
1
1
0
1
0
0
1
1
0
1
1
1
0
0
0
1
0
1
0
0
1
1
0
1
0
1
0
0
1
0
1
1
1
1
1
1
1
0
0
0
0
0
0
0
1
0
1
1
0
1
1
0
0
1
1
1
1
1
1
1
1
0
1
0
1
1
1
0
1
0
1
1
0
1
1
0
1
1
0
0
1
1
0
1
1
1
1
0
0
1
1
1
1
1
1
0
1
0
0
1
0
0
0
1
1
1
0
0
1
0
0
1
0
0
0
0
1
1
1
1
1
1
1
0
1
0
0
0
0
1
0
0
1
0
1
0
0
1
1
1
0
1
0
0
1
0
0
0
0
1
0
0
1
0
1
0
1
1
0
0
1
0
1
1
1
1
1
1
0
1
1
0
1
0
1
1
1
1
1
0
1
1
1
1
1
1
0
1
1
0
1
1
1
1
1
0
1
0
0
0
0
1
1
0
1
0
1
0
0
0
0
0
0
1
0
0
0
1
1
1
1
1
1
0
1
1
0
0
1
1
1
0
1
1
1
1
0
1
0
1
1
0
1
1
1
1
1
1
0
1
1
1
1
1
0
1
0
1
1
1
0
1
1
0
0
1
1
1
1
0
1
1
1
1
0
0
1
0
1
1
0
0
0
1
1
0
1
1
0
1
1
1
1
1
1
0
0
1
0
1
1
1
1
0
1
1
1
0
1
0
1
1
1
1
1
0
1
1
0
1
1
0
0
1
0
1
1
0
1
0
1
1
1
0
1
0
1
0
1
1
1
1
0
1
0
1
1
1
1
0
1
0
0
1
0
1
1
1
0
1
1
0
1
1
0
1
1
0
0
1
1
1
0
0
1
1
1
0
0
1
1
1
1
0
1
1
1
1
1
1
1
1
0
0
1
1
1
0
1
1
1
1
0
1
0
1
1
1
1
0
1
1
1
1
1
1
1
1
0
1
0
1
1
1
1
1
1
1
1
1
1
0
1
1
0
</DataArray>
<DataArray NumberOfComponents='1' type='Int32' Name='ParticleTetID' format='ascii'>
57616
-50400
91618
-69862
-102510
95701
-69112
25548
64741
103228
49908
42654
10049
58859
26986
-93293
3021
69993
22091
-98831
-12127
101388
-98411
39671
-93293
-102840
50497
-91191
100560
17554
-34180
48289
11811
-39168
59278
40988
-69112
-42296
46295
72950
72879
21989
70029
20235
-90119
61062
94294
-93119
81745
59697
-90337
80251
-25302
100560
77893
19723
96685
193
-27681
22183
47198
-90337
39977
25293
13046
60649
11435
-27681
71355
-104925
-80727
99195
91477
-96019
80251
38517
58120
-98411
-34180
-57434
8792
-57434
43849
-42296
-102510
37995
14533
-50400
93014
-69112
59874
-93293
-104802
44435
-83399
74641
99903
47661
15662
2722
73863
89697
-96019
-58762
-86274
-93119
-58762
-98765
-86274
96654
-96731
30916
92798
-24526
17734
23330
-87306
-96325
100592
76023
100821
49464
58709
47733
23218
38010
-98765
20599
-17626
27884
66359
100092
-96325
102062
-58762
76223
80737
-104802
99964
104730
-95998
32230
16701
-12127
-70156
37697
100215
-70156
18354
13953
-44138
78192
-83215
-102510
64204
96718
12026
13125
99903
26286
-39168
97508
-96019
-17626
6428
-39168
-90337
-74393
13008
105750
97137
-87514
-102840
45983
-93819
-39168
99126
-96354
-39168
-102840
-91248
73792
46686
34964
66553
89957
4491
97137
-96849
95247
-96019
-92373
-85990
-91248
72157
-69112
-83215
76908
-85990
30692
-102840
-83820
102317
28798
36588
-83215
100903
-90337
-98831
98266
-34180
-104802
-98210
-27681
80104
-69112
-98308
103068
-61396
80504
-70156
61082
58480
-74393
-102840
97497
-82524
67333
87369
27656
37816
69970
88589
-99021
81925
49067
-83399
41330
-104802
17554
87568
51651
22235
86783
-102510
6970
5595
3663
75214
80095
3062
-34180
100796
38282
-27681
79896
50573
99980
99975
100807
-104802
74641
-42296
-93119
-98210
-42296
42764
31092
-83399
77110
-96019
85474
-94130
-91191
-25302
-83399
-58762
-99021
5529
-98411
-48492
-96019
10196
102671
76883
49017
100352
93306
-96019
74569
18287
-61396
-34180
3998
47309
103229
-98831
40571
6863
41075
28016
-24687
46043
-102840
3381
75389
-83399
96068
61297
71163
67751
82910
68171
-42296
65872
100092
3571
45232
49229
-57434
28578
-94146
76750
5163
74099
-34180
101063
70459
-83215
-91191
100092
64956
54854
-96731
-101355
18506
20767
51861
98826
-98411
-94146
46186
-44138
39762
96026
-58762
-71594
-17626
33699
105174
-61396
27884
103166
-96849
7930
4275
66943
26221
27748
44985
-17626
-98831
2510
-83820
31552
105714
105563
100743
-56272
105311
73957
68134
-91191
11504
-83215
103942
20760
87636
71940
74014
-98306
7860
105259
-44138
14275
76955
-70156
-34180
56278
-101044
3447
24893
-94130
37153
-42296
58316
78164
99809
-94130
45820
-93119
101509
-24687
54321
20789
76420
62107
-42296
25293
-83215
56803
37816
78315
22369
-94130
56828
-99096
-69862
46807
-94130
67597
59534
76211
-91248
52260
54752
-92373
104065
65872
-102840
74369
17893
-102840
-24687
48171
89534
34113
-83399
-98210
60857
98830
8798
-34180
-96731
46554
12722
70442
40863
-27681
97981
56084
4148
46699
8912
87324
83627
74035
-50400
-42296
16606
43602
84962
-42146
88021
26624
20895
63076
-95447
93916
-99721
100560
15235
55374
87735
-96019
69918
101063
67332
59696
4722
95063
40064
101063
-96019
12521
-98411
22347
12521
61082
49168
104056
95236
32560
102468
74403
15240
-99721
32683
69861
-102840
</DataArray>
<DataArray NumberOfComponents='3' type='Float32' Name='vels' format='ascii'>
10.700189 6.134835 0.030062
22.746117 0.571945 -0.290697
1.225334 -0.004220 0.004187
20.081773 -0.217840 -0.277921
23.484112 -0.510887 0.083072
1.111034 -0.005966 0.000550
20.333378 0.277334 -0.621174
13.438164 -2.730468 -0.001593
10.188629 6.646865 0.028248
22.238572 6.715141 0.011919
23.636672 -4.464812 0.005537
1.485686 -0.006814 0.000506
3.069400 3.675256 0.029782
4.395486 -0.282851 0.000608
22.085186 0.362397 0.007354
20.644419 -0.244898 0.011251
18.273833 6.323363 0.002998
20.480419 -1.195054 -0.054527
11.190465 1.737750 0.016908
19.044396 -1.244907 -0.238396
21.835456 0.067503 1.640637
-0.075248 0.037548 -0.002906
20.051412 -0.328575 -0.076616
2.039608 -0.003032 0.004803
18.297037 -0.214221 0.115799
22.591256 -0.226395 0.244628
6.847067 0.315103 0.045970
21.418610 0.522880 0.667956
0.144415 0.037687 -0.018145
15.315752 0.896902 0.038000
22.058982 -0.221339 0.905368
2.741451 -0.089344 -0.000221
7.929305 0.199468 0.065764
19.420937 -0.419907 0.689956
14.597784 0.081351 -0.051524
16.365544 -8.865187 -0.012528
19.690416 0.183231 -1.354405
17.262796 -0.581290 -0.236368
25.767212 2.456045 -0.178772
8.719953 0.536989 0.027521
13.732409 -1.069776 0.064620
3.655514 -0.125457 0.000058
2.391808 -0.031334 -0.000244
4.158051 -0.012174 -0.006610
23.253517 -0.506630 -0.243077
2.883227 0.000280 -0.000931
0.075403 0.024098 -0.003140
21.234953 -0.478901 -0.021576
17.839595 -0.829944 0.074296
14.955874 -3.813210 -0.020006
15.641460 0.592641 2.478244
-0.018257 -0.027671 0.007324
23.583462 0.705706 0.031841
0.182681 0.046318 -0.020636
2.370820 -0.381768 0.003992
22.103879 1.236014 -0.050086
5.967402 0.344750 -0.011789
15.652313 -8.862010 -0.192209
16.294222 1.334800 -0.294998
11.990793 -0.510768 -0.019675
14.140043 -4.277633 -0.007607
15.971599 0.661878 2.362355
1.443277 -0.000240 -0.004485
16.355065 -1.790015 -0.062879
14.284140 -4.859749 -0.014310
1.190855 0.006854 -0.000936
8.855885 -5.968614 -0.022370
16.358776 2.099030 -0.512324
19.516940 -0.146986 0.014619
12.106804 0.099396 -0.173926
20.829917 -0.376475 0.351593
3.084508 -2.723480 -0.018728
21.412214 1.467416 -0.006916
21.624399 0.251894 -0.102345
-0.051420 0.006418 0.000198
8.053448 6.126853 -0.017314
17.837127 -2.786570 0.028113
16.029687 -0.488661 0.199500
22.453575 -0.519201 0.546982
20.858756 -0.561026 1.745228
10.866909 -0.054685 0.043654
22.318605 -0.637696 0.060034
12.512644 -0.362299 0.012399
17.872999 -0.508012 -0.210598
21.544261 -0.576351 -0.237666
3.804409 -0.183090 0.000107
7.441110 0.103531 0.020982
22.850020 0.504740 0.291769
17.751212 0.456185 -0.051344
20.405083 0.175823 -1.416689
5.574706 2.195465 -0.003949
18.397170 2.312845 0.926571
22.928140 -0.721532 0.020940
4.038543 0.622190 0.009971
21.674624 0.629290 -1.020716
0.456995 -0.000350 0.000268
0.101955 0.042584 0.010129
16.531519 0.106343 0.020692
18.408752 -3.085107 0.081163
22.204133 -0.043647 0.036994
16.032536 3.931802 0.019460
4.031733 -0.001467 0.027915
16.604183 0.954922 -1.554912
16.518350 0.455337 -2.328386
22.200797 0.725471 -0.532589
19.328759 -0.349707 0.354440
19.388330 0.531497 -1.176200
23.505890 -0.017541 0.011079
21.587448 0.974728 -0.641169
16.799620 0.006744 -0.002366
16.482712 -1.531327 -0.673981
15.588581 6.110688 -0.010151
11.359243 0.046115 0.014990
22.036278 0.624905 -0.469285
25.978871 -0.070385 0.026522
9.839898 -2.646047 0.028642
21.786999 -0.601339 -0.143358
14.298232 0.925327 0.629781
0.888141 -0.033439 0.008541
7.918885 0.013693 -0.024954
0.193783 0.002332 0.003430
28.785917 -0.032584 -0.025129
21.735736 -1.492736 -0.049979
13.933212 0.578767 0.006952
5.014024 -0.403998 -0.018323
11.765526 1.276681 -0.037008
23.130137 -0.019389 0.136113
16.346050 -1.062154 -0.156866
21.975496 -0.398811 0.347033
21.279183 -0.001587 -0.005426
11.324038 -2.186145 0.009860
-0.164540 0.024477 -0.003590
17.775444 0.811653 0.366037
12.907015 0.617394 -0.038214
16.323602 0.461840 -1.527500
16.061632 1.446105 0.054968
17.675894 10.301529 -0.026466
23.078656 -0.988561 -0.027553
3.981077 0.015899 -0.009940
2.525463 -0.059182 -0.000576
22.910553 -0.665074 -0.024346
6.890630 -1.295358 0.008354
12.367719 4.768589 -0.012061
23.086697 0.462772 0.127130
20.097993 -0.001831 0.998274
10.894314 0.273538 0.032834
4.495068 -0.033010 -0.014361
21.604291 0.016050 0.594368
15.791697 4.669746 0.000292
14.909862 5.889169 0.003108
16.746200 -1.534288 1.226030
20.103977 -0.674447 -0.071573
23.785807 0.531745 -0.031865
21.848852 0.420922 0.793156
2.384967 -0.015540 -0.036103
9.997934 0.384917 -0.015374
8.453895 -0.132873 0.026794
12.355921 -8.504892 -0.101694
-0.062795 -0.004965 0.011429
4.733247 3.697256 0.001370
17.330247 -0.352344 1.789258
14.268866 0.562617 0.023521
19.581049 0.422816 -0.371368
23.074533 -0.332614 -0.039117
13.159652 -1.540989 -0.006945
16.564731 -0.331065 1.203524
19.095386 0.410807 1.106184
21.597133 -0.714607 0.164443
15.477948 -0.899012 0.118188
0.233585 -0.000019 0.002736
-0.029522 -0.003951 0.005124
18.889380 -0.021748 0.028150
23.744358 -0.623742 0.078356
9.889097 -0.087687 -0.003300
21.550093 0.597724 0.177560
19.931805 -0.620684 -0.104144
0.071779 0.000015 -0.000233
22.186483 -0.580909 0.085191
18.532700 -0.364004 0.898198
22.731125 -0.410106 -0.267865
16.903104 -0.287756 -3.000994
21.825917 0.743955 -0.031578
24.467199 5.423258 -0.011238
18.723336 0.007651 0.024378
4.931365 0.302412 0.169229
16.234261 -0.096003 0.083414
20.245869 -2.105207 0.072847
0.014976 -0.001204 -0.006854
22.474392 0.693944 0.051149
4.226142 0.379057 -0.000912
16.990761 0.499263 -0.526326
17.556272 0.387056 -1.088772
22.424382 0.267650 -0.125181
19.438241 -0.645570 0.307630
1.001219 0.010620 -0.000043
19.790404 0.145941 -0.245545
23.805036 0.246133 -0.090822
12.729069 -0.593193 0.062847
17.974424 -0.188307 1.097113
20.241681 -0.039416 -0.086476
22.916248 -0.253452 -0.514480
18.818351 0.349067 -1.391396
0.805538 0.020279 0.001304
16.077184 0.728768 0.166262
7.081115 -0.152939 0.009435
23.480659 0.156312 -0.174877
-0.077201 0.035295 -0.004537
18.643998 0.568643 0.689326
18.384430 -0.878138 0.303210
3.111558 -0.017661 0.000397
23.583081 -0.560089 0.024302
23.161558 -0.767744 -0.045548
20.291565 1.561776 -0.694303
16.401910 -0.321120 -0.053734
18.340697 -0.611373 -0.167228
21.410000 0.626257 0.310330
18.442322 0.652253 -0.220620
19.170965 -0.881471 0.253712
18.769647 0.377517 0.667154
0.115538 -0.000230 -0.005070
17.750980 -0.020871 0.508239
15.521738 10.559779 0.020684
10.746819 -1.678886 0.008476
20.417662 -0.645471 0.231195
23.602854 -0.615112 0.038929
17.159431 -0.373922 0.044463
18.576584 -0.501876 -0.358508
4.465882 0.192800 0.002445
10.278723 -0.353983 -0.013924
25.458591 5.271221 -0.007399
16.076113 1.466198 0.043026
-0.067223 -0.031076 0.005839
4.874597 0.285950 -0.001529
21.328316 0.562810 0.238438
19.445007 -0.135635 0.030941
2.955129 0.014884 0.000622
22.195289 0.732663 -0.247530
21.704854 -1.142000 0.073565
22.344953 -0.609651 0.782143
12.054596 0.500855 0.055467
12.415351 -0.794256 -0.013131
22.807615 -6.964374 -0.016870
6.585131 0.400691 0.030335
17.128562 0.907399 -0.262763
23.606339 -0.372745 -0.031862
2.949173 -0.047532 -0.323028
17.997755 -8.491999 0.016883
3.696314 0.017266 -0.025985
16.280739 -1.522181 0.010038
8.587284 -1.189624 -0.005829
18.835750 -6.789209 -0.009448
21.838368 -0.661170 -0.191753
5.813511 0.120586 0.046409
13.446734 0.009660 -0.039993
15.580226 -0.323972 0.093963
5.277195 -2.801341 -0.010791
18.196011 -2.889341 0.002994
-0.027882 0.000673 0.033742
1.959202 0.016451 0.000037
-0.123559 0.034155 -0.005644
23.244983 -0.730652 -0.131282
14.724342 -0.068575 0.158140
20.722970 -0.207133 -0.102217
22.750940 -0.531753 0.033055
20.545453 -0.083357 -0.102342
20.285490 -0.903266 0.046184
4.594827 -0.137122 -0.001170
19.834826 3.624763 -0.006416
19.879728 0.548398 -0.714806
6.125749 0.972144 0.004361
18.274489 0.518023 -0.272507
-0.088854 -0.005167 -0.003179
22.049778 0.519534 -0.195881
19.783170 0.573937 0.196976
23.087101 0.531150 0.110178
20.744513 0.554739 -1.416790
18.689961 0.464014 -2.153891
22.952633 -0.348073 -0.012363
14.389036 -0.443522 -0.117202
20.312842 -0.228192 -0.737240
18.555870 0.457150 -0.153506
18.423548 1.307541 -2.021391
16.290006 -0.167271 -0.088396
18.839768 -1.304282 0.011193
14.997041 5.918141 -0.000980
18.232626 -0.162291 0.026826
20.574683 0.684997 -0.086370
0.027012 0.000057 0.002339
20.159521 0.339274 -0.414015
11.235796 2.569815 -0.020639
20.996822 0.006879 -0.010394
21.204620 0.562607 -0.004813
21.937366 -0.464106 0.805875
5.047543 -1.569347 0.012624
8.548952 -0.258428 -0.056477
19.379377 -6.716049 0.009928
17.251731 -2.118573 0.970715
14.137830 0.637677 -0.008181
17.180683 -5.302487 -0.000661
3.636661 -0.425001 -0.010334