<VTKFile type='UnstructuredGrid' version='1.0' byte_order='LittleEndian' header_type='UInt64'>
<UnstructuredGrid>
<Piece NumberOfCells='500' NumberOfPoints='500'>
<Points>
<DataArray NumberOfComponents='3' type='Float32' Name='Position' format='ascii'>
0.371524 0.613423 0.226873
0.782253 0.366694 0.117622
0.084393 0.980193 0.222761
0.538740 0.774130 0.185072
0.791175 0.776449 0.106432
0.061228 0.191525 0.247796
0.659615 0.285366 0.074771
0.428413 0.795958 0.208746
0.374779 0.614515 0.225165
0.326034 0.768110 0.227235
0.209498 0.248728 0.035786
0.072273 0.006630 0.059483
0.385162 0.541163 0.219486
0.192871 0.255626 0.236734
0.427706 0.692917 0.215065
0.635422 0.890693 0.150600
0.396504 0.323504 0.204256
0.399850 0.928240 0.159927
0.017268 0.793844 0.219451
0.611737 0.111241 0.112573
0.791285 0.242562 0.145534
0.015143 0.098542 0.236320
0.660088 0.707335 0.078507
0.068371 0.991158 0.149811
0.664911 0.886989 0.130451
0.789480 0.731933 0.118488
0.756901 0.497637 0.100127
0.746684 0.341059 0.159051
0.031698 0.846192 0.003454
0.200366 0.936681 0.218109
0.791779 0.703041 0.151671
0.157184 0.312094 0.242416
0.220453 0.960246 0.184267
0.548627 0.638071 0.181377
0.336164 0.955299 0.127110
0.498262 0.590304 0.202279
0.683159 0.275998 0.077747
0.701799 0.129343 0.122594
0.410291 0.568405 0.046558
0.408146 0.094680 0.067896
0.296352 0.091091 0.215925
0.199814 0.292266 0.238768
0.142679 0.294465 0.006027
0.166409 0.039605 0.032142
0.796264 0.678855 0.115484
0.046993 0.525391 0.007379
0.026731 0.125773 0.021736
0.722120 0.719547 0.165663
0.400351 0.929101 0.106619
0.456137 0.641514 0.198430
0.634007 0.854327 0.171670
0.020117 0.669889 0.221373
0.806052 0.330352 0.132093
0.033140 0.847509 0.004363
0.303636 0.478604 0.227901
0.350040 0.392201 0.207207
0.210260 0.855163 0.230422
0.448542 0.457567 0.040296
0.586004 0.909328 0.119969
0.237941 0.048060 0.165273
0.244703 0.254145 0.027110
0.641857 0.839172 0.173577
0.069993 0.993667 0.193319
0.523828 0.609689 0.189323
0.438158 0.651099 0.043106
0.072748 0.723112 0.003988
0.274848 0.390167 0.029672
0.629698 0.901111 0.128770
0.347246 0.107256 0.204380
0.544742 0.109197 0.156074
0.702858 0.166609 0.157690
0.346503 0.467415 0.026557
0.331728 0.960945 0.114087
0.674594 0.850312 0.087788
0.041443 0.652544 0.243454
0.264551 0.577996 0.029357
0.549619 0.668980 0.055947
0.630452 0.697554 0.067552
0.760174 0.657943 0.155408
0.759523 0.592697 0.150630
0.012918 0.206953 0.216252
0.772760 0.624072 0.150557
0.484540 0.909188 0.068794
0.715273 0.124474 0.120524
0.816552 0.794062 0.121534
0.178262 0.256405 0.239522
0.179938 0.964614 0.185375
0.779958 0.372290 0.134382
0.532176 0.087273 0.105421
0.646400 0.263645 0.078228
0.303819 0.585584 0.020966
0.646119 0.891660 0.124327
0.799160 0.660877 0.136769
0.388283 0.248493 0.039344
0.779881 0.384228 0.107050
0.054462 0.613601 0.248161
0.015739 0.556907 0.249375
0.575696 0.783005 0.194282
0.435664 0.836030 0.048611
0.238334 0.146923 0.202048
0.467256 0.249782 0.046880
0.020573 0.985612 0.177958
0.779805 0.821262 0.102027
0.741712 0.407441 0.084476
0.785831 0.811386 0.134509
0.633917 0.704895 0.177261
0.771661 0.410934 0.095944
0.808792 0.224048 0.125143
0.792585 0.810567 0.129015
0.358887 0.051077 0.117081
0.635063 0.121887 0.091919
0.672974 0.461125 0.178825
0.081604 0.907371 0.241125
0.772989 0.430354 0.103448
0.428585 0.693235 0.215201
0.440728 0.706465 0.042079
0.761168 0.590806 0.097209
0.596200 0.879259 0.171640
0.021547 0.992728 0.222789
0.689103 0.499521 0.080428
0.043438 0.043802 0.005919
0.262410 0.322553 0.213192
0.427591 0.925567 0.154698
0.531493 0.077759 0.124260
0.497124 0.655785 0.187671
0.288945 0.897802 0.029112
0.782087 0.185644 0.135542
0.540995 0.628738 0.192359
0.781065 0.787075 0.099614
0.365024 0.122211 0.037760
0.258989 0.169788 0.225957
0.014910 0.502703 0.224393
0.639889 0.868219 0.166668
0.482639 0.069470 0.150177
0.729726 0.417956 0.078365
0.514736 0.310250 0.052377
0.526545 0.435269 0.197450
0.789780 0.646485 0.126045
0.139780 0.984304 0.099953
0.227248 0.492112 0.235283
0.785483 0.584357 0.121273
0.521330 0.698412 0.050599
0.481007 0.354257 0.040542
0.787979 0.300352 0.143446
0.758598 0.753240 0.159829
0.174907 0.968976 0.190668
0.171100 0.018797 0.101302
0.614912 0.734323 0.180379
0.464247 0.313665 0.046964
0.424737 0.332191 0.038267
0.573491 0.127144 0.169849
0.388468 0.868380 0.205266
0.812481 0.259073 0.132306
0.792813 0.778973 0.143483
0.315775 0.957859 0.088638
0.283869 0.959575 0.173120
0.131489 0.038835 0.160763
0.377752 0.434134 0.033329
0.030722 0.567723 0.248476
0.414906 0.561443 0.224872
0.561054 0.656880 0.180987
0.305840 0.950155 0.175656
0.686169 0.832745 0.093135
0.784708 0.804033 0.113549
0.276989 0.145441 0.224341
0.618209 0.653578 0.177319
0.558487 0.822591 0.182818
0.745736 0.563672 0.095240
0.250531 0.047681 0.166211
0.207257 0.034371 0.168857
0.040097 0.988434 0.126792
0.540488 0.163410 0.064938
0.790312 0.746362 0.136320
0.397467 0.688828 0.216896
0.733996 0.439179 0.153027
0.610321 0.624676 0.180427
0.027700 0.985817 0.005116
0.778647 0.556284 0.123673
0.529177 0.672993 0.185399
0.783999 0.735551 0.109816
0.749743 0.618703 0.095721
0.407612 0.859215 0.042363
0.441350 0.347536 0.209836
0.353929 0.938529 0.171691
0.022695 0.014636 0.077909
0.547378 0.899822 0.089702
0.481922 0.914547 0.072455
0.037474 0.988749 0.139420
0.786304 0.385206 0.125508
0.260044 0.782603 0.238208
0.750751 0.820039 0.091778
0.600893 0.366026 0.061275
0.770673 0.233751 0.149853
0.636463 0.667058 0.075224
0.033491 0.884068 0.247084
0.640321 0.264741 0.074614
0.810130 0.250198 0.126411
0.213321 0.045864 0.157674
0.731976 0.200611 0.164622
0.364280 0.133311 0.036887
0.770177 0.732584 0.102267
0.660928 0.753260 0.073052
0.239234 0.898617 0.019269
0.532511 0.260899 0.054535
0.237215 0.032797 0.189378
0.820251 0.236096 0.118284
0.021092 0.157635 0.235419
0.629267 0.831107 0.174404
0.622225 0.106602 0.144207
0.175158 0.475712 0.242431
0.800619 0.668301 0.132003
0.785057 0.658070 0.126478
0.722427 0.859908 0.128551
0.589438 0.908911 0.124668
0.331075 0.094307 0.044575
0.780810 0.241748 0.102882
0.750904 0.410388 0.155962
0.518134 0.672525 0.062431
0.703179 0.309478 0.173837
0.066862 0.026610 0.024071
0.757590 0.768125 0.158861
0.619693 0.463029 0.062413
0.292599 0.150381 0.025619
0.781057 0.558892 0.107225
0.770049 0.729279 0.143641
0.271212 0.049361 0.127968
0.675868 0.601932 0.074016
0.164553 0.535627 0.015087
0.237520 0.025792 0.097781
0.513977 0.429694 0.202835
0.482761 0.214161 0.053397
0.039322 0.709317 0.239832
0.218662 0.596388 0.013591
0.791137 0.198146 0.136961
0.348587 0.064038 0.168464
0.072297 0.968166 0.214252
0.770452 0.393444 0.099524
0.417208 0.596001 0.035428
0.789847 0.572577 0.132240
0.146599 0.929129 0.205681
0.200193 0.113392 0.021507
0.432916 0.623087 0.210149
0.614557 0.414109 0.066434
0.543215 0.394724 0.185814
0.808895 0.761643 0.112755
0.587243 0.507261 0.063465
0.433744 0.630624 0.043166
0.148993 0.980697 0.159698
0.338209 0.119769 0.213120
0.030594 0.208665 0.021859
0.426426 0.620773 0.200648
0.797474 0.686867 0.142601
0.216601 0.974615 0.141327
0.362015 0.947952 0.115135
0.605243 0.904966 0.137080
0.287565 0.413623 0.229849
0.752143 0.527377 0.103226
0.031956 0.995380 0.044706
0.039789 0.793391 0.006537
0.011418 0.621399 0.217311
0.775835 0.600744 0.139023
0.032262 0.622818 0.242608
0.704529 0.127906 0.114935
0.762716 0.705307 0.154417
0.714377 0.846909 0.150841
0.662890 0.130315 0.149697
0.123337 0.395422 0.013860
0.774635 0.472533 0.110220
0.673569 0.371642 0.074286
0.272547 0.777053 0.230652
0.616834 0.875238 0.088249
0.035784 0.190137 0.014862
0.770751 0.312370 0.092609
0.585216 0.389853 0.173027
0.790845 0.339298 0.111860
0.726558 0.391801 0.081752
0.624717 0.410126 0.074404
0.791100 0.218106 0.108047
0.573618 0.908967 0.104046
0.656000 0.697800 0.077664
0.612971 0.875275 0.081546
0.663633 0.862837 0.090978
0.354919 0.117916 0.038849
0.402957 0.926185 0.104860
0.494548 0.412662 0.198298
0.334522 0.198428 0.029311
0.546164 0.117312 0.068820
0.069892 0.964480 0.238649
0.653736 0.833633 0.076512
0.018547 0.744204 0.031356
0.395688 0.866334 0.211333
0.674182 0.321863 0.164943
0.794005 0.703242 0.130637
0.338228 0.481778 0.210908
0.237170 0.066835 0.034214
0.437123 0.640252 0.037753
0.597933 0.096873 0.148048
0.388005 0.198201 0.036991
0.784727 0.525118 0.112347
0.293094 0.486570 0.226714
0.707016 0.512103 0.164805
0.710246 0.149745 0.095705
0.418050 0.811661 0.206833
0.796114 0.714803 0.139512
0.429448 0.626684 0.214677
0.438677 0.289890 0.041698
0.768236 0.396101 0.102958
0.385913 0.948871 0.124660
0.108888 0.146745 0.030000
0.385650 0.925605 0.070456
0.532526 0.274427 0.059344
0.277016 0.489355 0.017913
0.400390 0.926475 0.080938
0.715154 0.141206 0.134637
0.553987 0.086384 0.151192
0.017509 0.507386 0.235320
0.461654 0.340809 0.042506
0.262863 0.318339 0.233425
0.477844 0.918894 0.117900
0.722870 0.618286 0.168075
0.458905 0.685770 0.042095
0.640792 0.736954 0.183652
0.386340 0.608358 0.037017
0.161945 0.979602 0.194347
0.039319 0.426315 0.016931
0.784508 0.694278 0.147491
0.029297 0.374139 0.240158
0.276080 0.062957 0.038516
0.807472 0.227843 0.119044
0.629123 0.377721 0.178264
0.013302 0.515472 0.243586
0.070657 0.436418 0.227537
0.165944 0.039178 0.044028
0.560478 0.118298 0.075844
0.008433 0.606647 0.000007
0.551614 0.105482 0.077200
0.439557 0.553958 0.043458
0.424836 0.618313 0.032615
0.008023 0.281041 0.235808
0.772883 0.730776 0.097097
0.597938 0.744019 0.189292
0.418055 0.534033 0.042784
0.566336 0.107686 0.169685
0.197333 0.961283 0.067933
0.023549 0.130068 0.025664
0.716858 0.395675 0.077686
0.010083 0.890541 0.249328
0.801700 0.781744 0.124747
0.648771 0.527058 0.071693
0.502845 0.549551 0.200866
0.709390 0.299586 0.173452
0.365814 0.111618 0.043792
0.017883 0.982192 0.217268
0.776614 0.423013 0.139667
0.274017 0.900049 0.224852
0.720836 0.539489 0.084636
0.082731 0.010371 0.206119
0.527609 0.917546 0.136980
0.416639 0.843234 0.204813
0.332138 0.893162 0.044246
0.813875 0.787719 0.123624
0.609821 0.104798 0.137706
0.213358 0.952887 0.201555
0.758108 0.763352 0.086951
0.134900 0.028173 0.042280
0.169043 0.020214 0.163638
0.720602 0.481775 0.084471
0.016430 0.746943 0.010989
0.645907 0.183486 0.078164
0.426815 0.270336 0.216005
0.577357 0.504670 0.064783
0.029079 0.536146 0.226729
0.724042 0.349459 0.165356
0.315202 0.858378 0.035852
0.794936 0.271019 0.113418
0.781649 0.491421 0.113484
0.501156 0.881436 0.182075
0.310115 0.141677 0.216865
0.588497 0.409320 0.187425
0.442744 0.935171 0.140914
0.591533 0.103392 0.102975
0.498704 0.122835 0.185064
0.196531 0.037611 0.210214
0.595623 0.123857 0.174221
0.767387 0.468661 0.141753
0.308905 0.957011 0.088306
0.761635 0.790180 0.157229
0.804003 0.673467 0.136352
0.196214 0.975821 0.093576
0.033791 0.000403 0.182682
0.427792 0.882711 0.058425
0.135021 0.484490 0.009858
0.786103 0.358096 0.104000
0.585849 0.426226 0.186977
0.724271 0.137045 0.132907
0.354951 0.634727 0.027802
0.345201 0.120960 0.209180
0.048573 0.982827 0.021266
0.675099 0.353657 0.080257
0.342057 0.448327 0.219141
0.664020 0.675910 0.167880
0.017525 0.014919 0.080267
0.736781 0.158293 0.097654
0.022685 0.960821 0.014741
0.497567 0.914996 0.078267
0.326616 0.103290 0.208145
0.497748 0.596013 0.207058
0.680140 0.126981 0.148678
0.564488 0.588446 0.192163
0.801116 0.278607 0.121647
0.392907 0.457954 0.207361
0.486394 0.231495 0.050829
0.343786 0.061410 0.172307
0.101632 0.989593 0.168923
0.740872 0.304647 0.088976
0.298142 0.075294 0.033871
0.771752 0.410702 0.142681
0.609781 0.799079 0.176322
0.641759 0.504938 0.180527
0.743653 0.306203 0.089562
0.550255 0.753348 0.054356
0.190009 0.099270 0.017719
0.220856 0.903858 0.218640
0.735263 0.643773 0.088695
0.494636 0.439922 0.197007
0.597584 0.532812 0.060478
0.697947 0.317348 0.074082
0.335732 0.649853 0.223795
0.529534 0.098360 0.160895
0.792582 0.722328 0.110962
0.644276 0.459024 0.074316
0.223993 0.034829 0.193956
0.760051 0.716057 0.149327
0.758940 0.183880 0.104401
0.788913 0.476734 0.132092
0.289156 0.537637 0.016454
0.451520 0.396508 0.200335
0.756373 0.387800 0.096653
0.731621 0.851113 0.140697
0.350685 0.405282 0.023964
0.560676 0.085591 0.121027
0.445166 0.800857 0.044237
0.803770 0.693190 0.128981
0.628910 0.119348 0.089286
0.780582 0.479493 0.114355
0.500323 0.312279 0.048010
0.539279 0.231618 0.195746
0.426353 0.128531 0.200765
0.599561 0.905335 0.111416
0.042565 0.620080 0.004392
0.044931 0.687923 0.247775
0.483596 0.110856 0.179896
0.335926 0.287007 0.031370
0.695480 0.455946 0.080933
0.034164 0.639300 0.011564
0.440896 0.644456 0.042846
0.373277 0.331983 0.221176
0.785340 0.371160 0.132361
0.660083 0.129771 0.153162
0.462616 0.420500 0.209327
0.131317 0.026202 0.041530
0.426190 0.855071 0.045732
0.643481 0.598369 0.176597
0.040221 0.572144 0.014868
0.405353 0.518328 0.218208
0.335341 0.045949 0.161203
0.312059 0.083022 0.212381
0.751954 0.327953 0.159461
0.354367 0.677570 0.019879
0.576869 0.229287 0.182704
0.035354 0.847258 0.001241
0.347636 0.845361 0.222103
0.020975 0.956966 0.011935
0.054409 0.003141 0.208048
0.760529 0.828367 0.097838
0.387375 0.119625 0.199917
0.029573 0.373181 0.238896
0.313572 0.870344 0.035940
0.570268 0.606912 0.191611
0.777659 0.509004 0.126510
0.024363 0.944576 0.001468
0.460886 0.331608 0.205485
0.019051 0.387226 0.244908
0.632123 0.855663 0.077950
0.242462 0.946719 0.053257
0.751174 0.740593 0.089962
0.598169 0.504848 0.063901
0.243424 0.949675 0.052741
0.621636 0.463846 0.063380
0.499070 0.562779 0.200846
0.399577 0.924270 0.089324
0.415906 0.945294 0.108637
0.175584 0.976484 0.071586
0.130633 0.021270 0.057535
0.219075 0.038563 0.175147
0.531494 0.086434 0.157665
0.562988 0.193085 0.184793
0.459179 0.135547 0.200620
0.510058 0.791106 0.186254
0.803810 0.712688 0.125008
</DataArray>
</Points>
<PointData>
<DataArray NumberOfComponents='1' type='Int32' Name='ParticleType' format='ascii'>
1
1
1
1
1
1
1
1
1
1
1
1
1
1
1
1
1
1
1
1
1
1
1
1
1
1
1
1
1
1
1
1
1
1
1
1
1
1
1
1
1
1
1
1
1
1
1
1
1
1
1
1
1
1
1
1
1
1
1
1
1
1
1
1
1
1
1
1
1
1
1
1
1
1
1
1
1
1
1
1
1
1
1
1
1
1
1
1
1
1
1
1
1
1
1
1
1
1
1
1
1
1
1
1
1
1
1
1
1
1
1
1
1
1
1
1
1
1
1
1
1
1
1
1
1
1
1
1
1
1
1
1
1
1
1
1
1
1
1
1
1
1
1
1
1
1
1
1
1
1
1
1
1
1
1
1
1
1
1
1
1
1
1
1
1
1
1
1
1
1
1
1
1
1
1
1
1
1
1
1
1
1
1
1
1
1
1
1
1
1
1
1
1
1
1
1
1
1
1
1
1
1
1
1
1
1
1
1
1
1
1
1
1
1
1
1
1
1
1
1
1
1
1
1
1
1
1
1
1
1
1
1
1
1
1
1
1
1
1
1
1
1
1
1
1
1
1
1
1
1
1
1
1
1
1
1
1
1
1
1
1
1
1
1
1
1
1
1
1
1
1
1
1
1
1
1
1
1
1
1
1
1
1
1
1
1
1
1
1
1
1
1
1
1
1
1
1
1
1
1
1
1
1
1
1
1
1
1
1
1
1
1
1
1
1
1
1
1
1
1
1
1
1
1
1
1
1
1
1
1
1
1
1
1
1
1
1
1
1
1
1
1
1
1
1
1
1
1
1
1
1
1
1
1
1
1
1
1
1
1
1
1
1
1
1
1
1
1
1
1
1
1
1
1
1
1
1
1
1
1
1
1
1
1
1
1
1
1
1
1
1
1
1
1
1
1
1
1
1
1
1
1
1
1
1
1
1
1
1
1
1
1
1
1
1
1
1
1
1
1
1
1
1
1
1
1
1
1
1
1
1
1
1
1
1
1
1
1
1
1
1
1
1
1
1
1
1
1
1
1
1
1
1
1
1
1
1
1
1
1
1
1
1
1
1
1
1
1
1
1
1
1
1
1
1
1
1
1
1
1
1
1
1
1
1
1
1
1
1
1
1
1
1
1
1
1
1
1
1
1
</DataArray>
<DataArray NumberOfComponents='1' type='Int32' Name='ParticleID' format='ascii'>
0
1
2
3
4
5
6
7
8
9
10
11
12
13
14
15
16
17
18
19
20
21
22
23
24
25
26
27
28
29
30
31
32
33
34
35
36
37
38
39
40
41
42
43
44
45
46
47
48
49
50
51
52
53
54
55
56
57
58
59
60
61
62
63
64
65
66
67
68
69
70
71
72
73
74
75
76
77
78
79
80
81
82
83
84
85
86
87
88
89
90
91
92
93
94
95
96
97
98
99
100
101
102
103
104
105
106
107
108
109
110
111
112
113
114
115
116
117
118
119
120
121
122
123
124
125
126
127
128
129
130
131
132
133
134
135
136
137
138
139
140
141
142
143
144
145
146
147
148
149
150
151
152
153
154
155
156
157
158
159
160
161
162
163
164
165
166
167
168
169
170
171
172
173
174
175
176
177
178
179
180
181
182
183
184
185
186
187
188
189
190
191
192
193
194
195
196
197
198
199
200
201
202
203
204
205
206
207
208
209
210
211
212
213
214
215
216
217
218
219
220
221
222
223
224
225
226
227
228
229
230
231
232
233
234
235
236
237
238
239
240
241
242
243
244
245
246
247
248
249
250
251
252
253
254
255
256
257
258
259
260
261
262
263
264
265
266
267
268
269
270
271
272
273
274
275
276
277
278
279
280
281
282
283
284
285
286
287
288
289
290
291
292
293
294
295
296
297
298
299
300
301
302
303
304
305
306
307
308
309
310
311
312
313
314
315
316
317
318
319
320
321
322
323
324
325
326
327
328
329
330
331
332
333
334
335
336
337
338
339
340
341
342
343
344
345
346
347
348
349
350
351
352
353
354
355
356
357
358
359
360
361
362
363
364
365
366
367
368
369
370
371
372
373
374
375
376
377
378
379
380
381
382
383
384
385
386
387
388
389
390
391
392
393
394
395
396
397
398
399
400
401
402
403
404
405
406
407
408
409
410
411
412
413
414
415
416
417
418
419
420
421
422
423
424
425
426
427
428
429
430
431
432
433
434
435
436
437
438
439
440
441
442
443
444
445
446
447
448
449
450
451
452
453
454
455
456
457
458
459
460
461
462
463
464
465
466
467
468
469
470
471
472
473
474
475
476
477
478
479
480
481
482
483
484
485
486
487
488
489
490
491
492
493
494
495
496
497
498
499
</DataArray>
<DataArray NumberOfComponents='1' type='Int8' Name='IsActive' format='ascii'>
1
1
1
1
1
1
1
1
1
1
1
1
1
1
1
1
1
1
1
1
1
1
1
1
1
1
1
1
1
1
1
1
1
1
1
1
1
1
1
1
1
1
1
1
1
1
1
1
1
1
1
1
1
1
1
1
1
1
1
1
1
1
1
1
1
1
1
1
1
1
1
1
1
1
1
1
1
1
1
1
1
1
1
1
1
1
1
1
1
1
1
1
1
1
1
1
1
1
1
1
1
1
1
1
1
1
1
1
1
1
1
1
1
1
1
1
1
1
1
1
1
1
1
1
1
1
1
1
1
1
1
1
1
1
1
1
1
1
1
1
1
1
1
1
1
1
1
1
1
1
1
1
1
1
1
1
1
1
1
1
1
1
1
1
1
1
1
1
1
1
1
1
1
1
1
1
1
1
1
1
1
1
1
1
1
1
1
1
1
1
1
1
1
1
1
1
1
1
1
1
1
1
1
1
1
1
1
1
1
1
1
1
1
1
1
1
1
1
1
1
1
1
1
1
1
1
1
1
1
1
1
1
1
1
1
1
1
1
1
1
1
1
1
1
1
1
1
1
1
1
1
1
1
1
1
1
1
1
1
1
1
1
1
1
1
1
1
1
1
1
1
1
1
1
1
1
1
1
1
1
1
1
1
1
1
1
1
1
1
1
1
1
1
1
1
1
1
1
1
1
1
1
1
1
1
1
1
1
1
1
1
1
1
1
1
1
1
1
1
1
1
1
1
1
1
1
1
1
1
1
1
1
1
1
1
1
1
1
1
1
1
1
1
1
1
1
1
1
1
1
1
1
1
1
1
1
1
1
1
1
1
1
1
1
1
1
1
1
1
1
1
1
1
1
1
1
1
1
1
1
1
1
1
1
1
1
1
1
1
1
1
1
1
1
1
1
1
1
1
1
1
1
1
1
1
1
1
1
1
1
1
1
1
1
1
1
1
1
1
1
1
1
1
1
1
1
1
1
1
1
1
1
1
1
1
1
1
1
1
1
1
1
1
1
1
1
1
1
1
1
1
1
1
1
1
1
1
1
1
1
1
1
1
1
1
1
1
1
1
1
1
1
1
1
1
1
1
1
1
1
1
1
1
1
1
1
1
1
1
1
1
1
1
1
1
1
1
1
1
1
</DataArray>
<DataArray NumberOfComponents='1' type='Int32' Name='ParticleTetID' format='ascii'>
53238
57152
69708
12200
17687
88115
3570
56789
53238
14177
93879
52922
7827
96471
89283
12833
19000
13898
100932
10974
28899
101388
15475
81789
16659
6337
21322
35348
100560
25693
79014
58165
26799
40870
22366
15518
19496
101694
17576
2765
66525
50068
85795
62702
29749
83524
94294
30288
6285
2293
51670
80251
5945
100560
7466
74661
96040
21793
5399
56590
3305
66617
68009
15172
17177
51000
12431
16659
105392
2212
16567
45356
22366
54949
80251
104524
6191
52765
77388
16522
99295
19633
4025
101694
95900
97062
39977
31224
87983
3570
37784
16659
29749
8608
57152
97152
99903
14007
103403
4892
71765
101500
40021
9970
37494
83419
15601
28899
33159
28259
20843
105052
83725
15601
89283
10707
45494
104053
101245
83860
28494
15344
13898
67918
30633
46820
38733
15172
60544
81540
19653
100092
51670
39544
9970
103514
44116
64241
95167
91614
26705
35455
13747
9446
45147
35645
75110
93460
94117
12673
17372
56225
10311
48330
23166
22369
85676
24616
99903
103441
56660
20471
50672
40395
11837
78882
37698
45051
48338
65009
97137
27315
35960
28123
25720
8898
101445
16522
18920
15027
45676
29510
71165
13287
101509
15468
4025
97137
23691
53
51440
42409
69032
22361
71593
1450
28899
68395
16567
81540
6337
4640
35332
77219
33561
27485
100903
66617
9901
20579
29749
29749
1710
104054
57287
28219
70888
21745
27148
31131
54027
595
3049
53907
49319
4262
19602
60044
13620
104252
45566
69970
57508
8504
41553
69708
11299
17576
40325
101524
50333
2385
44637
101603
95264
25726
21312
52957
41864
99275
2385
79014
310
4115
104055
29736
16996
99980
101022
100807
26705
100807
101694
45447
2794
6851
24188
31961
38734
53
47507
85474
5059
101604
64961
9970
44637
39431
1637
47776
16854
73912
67755
6285
41458
29587
45888
69708
50672
81214
56225
27148
29956
71279
22635
20355
11818
929
15682
46751
28566
101695
33580
79014
2385
39412
11299
2623
16649
45850
103515
5988
40470
101695
1847
100092
18879
15344
16115
86888
57486
55796
19772
41254
74099
29956
101063
63045
27485
43147
100092
91803
62702
47873
101354
45888
31808
21200
98826
6337
8131
4396
2212
31118
94294
9970
101139
95900
14261
4039
22328
67755
101245
9550
73882
45051
12444
1637
56984
52592
95900
10974
25693
40006
105280
70427
75550
100743
40165
11070
24633
77116
21608
37712
43649
31961
52055
97328
22462
22802
12236
876
12149
17757
9859
19914
69480
29749
39868
101043
104928
87936
64961
27512
101695
79163
105393
91864
29930
63810
23008
101509
101695
101224
4025
54196
22950
6851
33506
9446
36821
52808
41553
25514
5059
51291
23691
37698
34801
5059
247
56551
60188
90114
104252
14261
7397
59234
17043
6337
595
33561
49319
7271
29466
31105
35757
57152
2794
20610
2207
39673
79014
14811
31961
103514
57164
32799
7717
76206
69970
876
51190
12244
76206
20355
20936
31224
6851
35757
105280
28873
25083
88021
7194
53334
52905
35348
17747
50477
100560
2187
101224
90466
51440
77702
101063
37712
8672
8782
95063
30484
101063
47507
82705
40006
3133
68435
595
4039
2623
6285
66331
105280
65009
71763
47831
1579
6084
79014
</DataArray>
<DataArray NumberOfComponents='3' type='Float32' Name='vels' format='ascii'>
7.871768 0.081775 0.000457
19.108146 -3.903903 -0.006473
2.126022 0.001699 0.011462
17.468146 0.714520 0.003084
23.108390 5.222728 0.008964
0.682102 0.014467 0.002191
19.389533 -1.970208 -0.007523
13.834332 0.254078 0.004853
8.316846 0.086079 0.000547
8.034530 0.094868 -0.001202
11.091230 -0.055545 -0.027469
2.488066 0.008270 0.014424
9.971256 0.048811 -0.000002
4.607857 -0.025042 0.004304
14.157995 0.286146 0.000168
17.430863 0.691543 0.017481
13.882473 -0.240768 0.001660
13.454535 0.093817 0.015700
0.104201 -0.032470 -0.001727
17.339552 -0.563347 -0.013532
22.709532 -5.368858 -0.007773
-0.164368 0.023416 -0.000440
10.078515 1.226993 0.005363
1.996075 -0.005232 0.016364
20.620796 1.410192 0.005163
22.852007 5.488207 -0.002392
18.105385 -0.075879 0.009521
19.014175 -3.602796 -0.006971
-0.049417 0.048772 -0.006559
5.969866 0.031828 -0.022101
20.877613 5.275735 -0.008389
13.320951 -0.003942 0.060045
5.640185 -0.013886 0.019310
15.237370 0.651547 -0.000730
9.918068 0.021571 -0.005121
14.167410 0.277208 -0.000485
20.404025 -2.328980 -0.005600
21.447715 -1.629234 -0.000205
14.989126 0.151450 0.000731
10.736430 -0.097007 -0.017863
7.868416 -0.051426 -0.003589
3.913633 -0.017924 0.000588
2.059145 -0.004166 -0.002521
6.609845 -0.074034 0.006690
20.999325 5.331672 -0.005208
-0.135195 0.007364 -0.001472
-0.031916 0.019102 -0.001148
17.872552 3.655327 -0.011525
7.028398 0.030174 0.019699
10.988321 0.298199 -0.000894
20.121752 0.802224 -0.007473
0.164100 -0.032359 0.013318
20.336284 -5.230230 0.007010
-0.019680 0.048576 -0.008292
7.542172 -0.011911 0.001961
13.154107 -0.117503 0.000884
5.515821 0.052920 0.008437
12.295307 -0.101426 0.002129
18.468137 0.577808 0.023861
9.384153 -0.023545 -0.031946
8.837594 -0.075236 -0.012069
16.996643 0.920718 0.005217
1.254913 -0.008382 0.019824
16.834472 0.482060 -0.000267
12.466559 0.248923 -0.001108
1.362536 -0.013172 -0.004105
9.779337 -0.051804 -0.002381
18.017618 0.641725 0.009964
6.542822 -0.064588 0.010797
7.799743 -0.174589 0.009167
22.699693 -2.122623 -0.009862
8.117681 -0.030699 -0.001119
8.933008 0.023490 -0.005173
19.403265 1.291843 0.003158
-0.041135 0.006156 0.000581
12.329661 0.043064 -0.008804
15.430935 0.671225 0.003940
17.878954 1.537058 -0.006142
19.869818 3.799993 0.000527
19.336629 2.897983 -0.001142
0.028994 -0.005817 -0.006858
18.491165 3.820252 -0.001933
13.579595 0.107157 0.011066
21.503241 -1.748179 0.001190
24.717058 6.130838 -0.009215
3.607162 -0.022560 0.004876
6.187594 -0.043261 -0.041349
20.480204 -3.701358 0.007137
14.621048 -0.243010 0.009715
10.492967 -1.116671 0.000451
7.273017 0.055539 -0.000920
18.389850 0.778259 -0.002424
19.579270 5.053664 -0.002982
14.930434 -0.256525 0.000058
19.133232 -3.606690 0.003268
0.705422 -0.015649 0.000949
0.014837 0.060833 -0.009241
15.840876 0.891967 0.008152
13.318808 0.232093 0.016907
12.459973 -0.131520 0.045011
14.021673 -0.427524 -0.005343
0.272100 0.004343 -0.064329
23.479626 3.770992 -0.001249
18.736819 -2.285262 -0.001642
24.241933 4.204842 -0.000546
19.683265 1.633804 -0.003330
18.126332 -2.694894 -0.006569
24.295430 -5.633597 0.005102
24.493439 4.433991 -0.003215
11.009711 -0.007817 -0.006341
18.512952 -0.867827 0.010784
17.096652 -0.570712 -0.005627
2.230802 -0.020146 0.000491
18.219846 -2.201910 -0.005837
14.304931 0.289021 0.000186
11.450507 0.281824 -0.000323
18.630392 2.600812 -0.001439
17.446466 0.735519 0.013209
0.098808 0.005284 -0.035348
18.506478 0.120478 -0.006514
0.978604 0.033054 0.029009
14.148278 -0.097268 0.009048
14.420723 0.136670 0.028229
13.920849 -0.165389 0.002466
18.914931 0.418302 -0.000451
7.183541 0.042424 -0.005840
24.375483 -4.589454 0.012441
17.227154 0.624718 -0.001010
23.214876 4.413359 -0.001769
9.795892 -0.089360 -0.005430
7.272906 -0.081155 0.011113
-0.089125 0.019935 -0.004796
15.881812 0.671093 0.021340
13.138928 -0.144337 -0.012510
18.817635 -1.865776 0.000531
5.894793 -0.299389 -0.002122
16.638462 -0.293559 0.000957
20.080647 4.599383 -0.003190
3.695861 -0.004418 -0.006054
5.149387 0.001473 0.002029
15.892877 2.101887 0.003503
18.186911 0.677444 -0.000491
10.293410 -0.297899 -0.002354
20.204544 -5.671910 0.009425
21.209267 3.826461 -0.006346
4.598512 -0.056289 -0.045024
4.341101 -0.013088 0.010770
12.044080 0.946995 -0.007206
14.083013 -0.392733 -0.002531
11.955246 -0.243704 0.000296
17.263025 -0.713531 0.031111
3.696399 0.041121 -0.002186
23.163891 -6.284936 -0.012831
23.047755 4.331652 -0.004678
8.727494 -0.028540 0.068626
7.895988 0.026735 -0.016016
10.054864 -0.086752 0.069851
10.776207 -0.076609 -0.000060
0.253423 -0.006536 0.021579
9.315254 0.106068 0.000799
12.934813 0.693089 -0.001133
9.201740 0.044291 -0.025715
20.750406 1.637739 -0.004117
24.174359 4.324849 -0.000266
7.521036 -0.078977 -0.004593
18.090976 1.233799 0.000028
17.679201 0.679177 -0.000088
18.440120 1.671796 0.004402
3.201572 0.008373 -0.044928
8.988729 -0.078510 0.007817
0.016239 -0.006272 0.004658
16.438055 -0.539261 0.002903
23.278830 5.352977 0.001157
9.484584 0.175651 -0.000290
18.905345 -1.469278 -0.006258
17.146486 1.381546 0.006353
0.302178 -0.001535 0.001226
17.840956 1.456136 -0.003009
8.041793 0.404936 0.000634
22.776906 5.091923 -0.006658
19.844707 3.550631 0.004973
11.300947 0.130073 0.014342
7.422914 -0.161755 0.000541
5.578036 0.022503 0.003718
-0.089407 -0.001608 0.012450
16.272092 0.340886 -0.004353
13.223689 0.109799 0.005015
-0.004497 -0.000011 -0.003999
19.155036 -3.949106 0.007598
4.030758 0.035134 0.008020
22.167942 3.038045 -0.003902
16.853251 -0.943855 0.001957
20.638864 -4.348677 -0.001488
19.202838 1.467526 -0.005544
0.617881 -0.073810 0.005557
17.626577 -1.184408 -0.003446
23.554877 -6.058360 -0.003752
9.060332 -0.016057 -0.032745
22.045149 -3.055389 -0.008156
9.859870 -0.095489 -0.001846
22.313986 4.600514 -0.004448
18.999209 1.604267 0.007540
9.489279 0.081818 -0.033260
15.862068 -0.751652 -0.000932
5.982808 0.001364 0.001159
23.624793 -6.296102 0.001078
-0.092825 0.028168 0.000411
6.011062 0.515791 -0.000270
15.866009 -0.380619 0.008580
2.777212 -0.001796 0.000992
20.560532 5.338564 -0.004828
19.513322 4.492409 -0.004751
21.942666 1.932936 0.003221
18.439415 0.562900 0.026870
11.305515 -0.079402 0.000140
22.947687 -4.830556 0.001717
18.580832 -2.562135 -0.002776
12.382012 0.502243 0.005454
20.148723 -2.473694 -0.001013
1.199089 -0.002641 -0.033052
22.556789 4.178886 -0.004978
18.833175 0.024774 -0.001968
7.050026 -0.059758 0.006069
18.294986 1.000378 0.003511
22.304843 4.719478 0.007396
10.622841 -0.037370 -0.003244
17.926192 1.307927 -0.011232
5.300664 0.001618 -0.001657
6.199846 -0.025266 -0.021329
14.658155 -0.274366 0.000129
15.105527 -0.400014 -0.000630
-0.034553 -0.028574 0.006411
4.756967 0.011919 -0.002501
24.266148 -4.562147 0.017194
5.090242 -0.025294 0.017048
3.971125 -0.025488 0.036686
18.774936 -3.140064 -0.006811
11.276145 0.149239 0.000192
18.299588 2.603685 -0.006511
7.715527 0.111518 0.065868
11.853958 -0.105002 -0.041223
12.424418 0.213353 -0.001569
17.506400 -1.146566 -0.004805
17.437304 -0.542235 -0.000411
23.734773 5.837418 0.004279
11.833491 -0.003529 -0.000446
12.890177 0.238280 -0.000443
4.321912 0.020402 0.021483
13.788916 -0.133079 0.004608
0.164147 0.004739 -0.012669
14.689992 0.238543 -0.000545
21.684006 5.613860 -0.006092
6.157250 0.022656 -0.044687
13.840012 0.095354 0.035693
17.585727 0.651998 0.031705
6.972880 -0.038747 0.001782
17.757140 0.713339 0.003781
0.238787 -0.002745 0.082601
0.067043 0.004699 -0.005139
-0.199421 0.025587 -0.006711
19.565715 3.182752 0.000399
0.149102 -0.035134 0.024941
21.763421 -1.760361 -0.001559
21.075300 4.322954 0.007616
21.578827 2.053616 -0.001612
20.302893 -1.177996 0.004543
7.108984 0.023344 -0.066052
18.033002 -0.921344 -0.003227
19.532211 -2.147361 0.001402
6.394910 0.062385 -0.001311
18.283174 0.766049 -0.015391
0.122404 0.009753 -0.009866
20.322733 -4.377289 -0.002644
13.478888 -0.827742 0.003556
20.364082 -4.841266 0.007051
18.228392 -2.251410 0.001988
19.856825 -0.742502 -0.003689
23.802488 -4.848970 0.008516
18.381076 0.617213 0.012221
2.137383 0.310715 -0.005437
17.886087 0.887920 0.003022
19.480252 1.520630 -0.003465
12.273852 -0.103870 -0.003683
5.781899 0.018482 0.030910
12.674741 -0.295418 0.001064
2.586898 -0.035975 0.000505
15.300601 -0.387899 0.014148
1.595712 0.002501 0.007376
19.292067 1.044440 -0.004849
6.031029 -0.433016 0.641656
10.341897 0.122279 0.002166
20.192207 -2.168309 -0.001838
21.080745 4.991644 0.000799
12.966272 -0.035333 0.002130
4.261377 -0.012820 -0.032306
18.226405 0.329202 -0.000676
18.193141 -0.635017 0.013725
14.254308 -0.215483 -0.010366
16.486151 0.718713 -0.002630
7.902030 0.000060 0.001599
18.149489 0.259545 -0.002251
21.980804 -2.057546 -0.002966
11.272177 0.212358 0.002193
20.772987 4.825617 -0.004679
11.251961 0.191746 -0.001528
8.175750 -0.221326 -0.000155
18.989840 -3.049463 -0.008716
13.089320 0.089967 0.016126
8.504832 0.080911 -0.070104
10.981085 0.024497 -0.018568