<VTKFile type='UnstructuredGrid' version='1.0' byte_order='LittleEndian' header_type='UInt64'>
<UnstructuredGrid>
<Piece NumberOfCells='500' NumberOfPoints='500'>
<Points>
<DataArray NumberOfComponents='3' type='Float32' Name='Position' format='ascii'>
1.782741 0.669682 0.227776
2.041913 0.322548 0.117272
0.361476 0.978608 0.221622
2.032789 0.817449 0.183718
2.006422 0.772777 0.106364
0.251701 0.191293 0.246314
2.021840 0.236634 0.075397
2.017995 0.818960 0.207017
1.833905 0.665481 0.225110
1.831009 0.787104 0.226763
2.000547 0.222329 0.034662
0.376322 0.005325 0.057939
1.652097 0.639028 0.220884
0.948887 0.162570 0.237421
2.020090 0.731064 0.214867
2.029884 0.896507 0.149988
2.019396 0.268186 0.204956
2.024177 0.929727 0.162309
1.876816 0.820200 0.219183
2.028493 0.103892 0.112536
2.053310 0.240382 0.149626
0.506311 0.103643 0.228563
2.013011 0.752185 0.079681
0.476980 0.991317 0.150325
2.010016 0.889759 0.129730
2.047684 0.745451 0.119795
1.455623 0.493261 0.095207
2.034071 0.303870 0.160488
0.049962 0.854887 0.001346
1.399457 0.961253 0.223075
2.049422 0.718082 0.151819
0.774072 0.275902 0.242666
1.481616 0.978869 0.185919
2.022542 0.715620 0.181877
2.007435 0.963692 0.130137
2.010632 0.639137 0.200410
2.032977 0.238094 0.074622
2.000648 0.118576 0.122908
2.023587 0.621514 0.041745
2.021349 0.083507 0.064647
1.693710 0.062324 0.217042
0.899666 0.207812 0.239423
0.559973 0.284341 0.008198
0.871276 0.030717 0.030906
2.007880 0.710244 0.115067
0.402772 0.526361 0.009050
0.028622 0.129015 0.020369
2.001995 0.747523 0.166309
2.009973 0.935019 0.106858
2.032963 0.684623 0.203324
2.034140 0.855777 0.176953
0.022389 0.666240 0.224134
2.008327 0.295468 0.130869
0.093765 0.849794 0.002545
1.014301 0.295299 0.229841
2.014178 0.336587 0.209485
1.450734 0.916273 0.231083
1.951222 0.401859 0.038476
2.020040 0.916381 0.117455
1.830867 0.042935 0.165119
2.009763 0.231899 0.027127
2.033928 0.852710 0.179680
0.306174 0.991819 0.194347
2.009942 0.676050 0.191148
2.019976 0.708230 0.042371
0.248500 0.723838 0.001457
1.878924 0.337153 0.029722
2.031539 0.915199 0.125560
2.031289 0.095241 0.207983
2.018562 0.097872 0.154440
2.032726 0.151930 0.157049
1.470500 0.249050 0.023189
1.869552 0.967082 0.116108
2.012379 0.857800 0.088540
0.041039 0.652642 0.242452
1.729640 0.647531 0.029171
2.006516 0.709664 0.056035
2.006612 0.733044 0.069206
2.032027 0.708061 0.156368
2.047422 0.659033 0.158041
0.952280 0.139365 0.212519
2.008623 0.671327 0.150335
2.017950 0.932096 0.066731
2.000212 0.119345 0.120454
2.027649 0.788814 0.122788
0.857985 0.195533 0.240205
1.338772 0.984053 0.188580
2.037782 0.301018 0.135393
2.000514 0.077327 0.105807
2.037639 0.231862 0.074891
1.463267 0.784967 0.020470
2.043692 0.901627 0.126913
2.041219 0.688146 0.137356
2.000429 0.215780 0.041495
2.033186 0.327317 0.104475
0.192364 0.612383 0.250010
0.035485 0.561933 0.249385
2.044269 0.818918 0.199550
2.001223 0.848056 0.050231
2.017651 0.129320 0.202862
2.012521 0.233298 0.045845
0.409769 0.980666 0.173718
2.030091 0.839346 0.098504
2.033268 0.354557 0.077770
2.041484 0.819601 0.133527
2.016896 0.735843 0.177114
2.005133 0.350592 0.093012
2.030378 0.211665 0.125291
2.051344 0.818365 0.128576
2.023131 0.039322 0.115082
2.015030 0.096685 0.090606
2.042048 0.398850 0.188016
0.539385 0.911927 0.241727
2.022922 0.372593 0.103430
2.023228 0.730447 0.214347
2.016049 0.756633 0.040487
2.020701 0.649097 0.095229
2.010562 0.904400 0.171377
0.056648 0.992540 0.222027
1.446471 0.497507 0.072674
0.119714 0.043714 0.005820
1.961711 0.274786 0.211802
2.032231 0.932595 0.160442
2.006229 0.058657 0.123712
2.029796 0.721484 0.189331
1.772095 0.903394 0.028208
2.022575 0.188149 0.135854
2.017201 0.681083 0.191017
2.023163 0.803616 0.100864
2.016357 0.106732 0.037931
1.921690 0.149989 0.222982
0.144564 0.505056 0.217330
2.015481 0.887887 0.167531
2.012309 0.059204 0.149143
2.024290 0.352007 0.073397
2.044852 0.258797 0.047845
2.004841 0.367351 0.200467
2.018896 0.681016 0.127061
0.843969 0.989654 0.102073
0.931486 0.468184 0.233260
2.018782 0.639498 0.119193
2.033252 0.732225 0.044826
2.006809 0.305431 0.041686
2.020581 0.271387 0.143559
2.029636 0.772421 0.161292
1.144431 0.984281 0.192059
0.898890 0.012329 0.100573
2.030579 0.775512 0.178289
2.041007 0.276005 0.046258
2.000271 0.289912 0.039032
2.030297 0.105648 0.171593
2.008805 0.883220 0.211431
2.007401 0.237211 0.132114
2.043957 0.792899 0.145899
1.834613 0.960967 0.088238
1.723110 0.964280 0.173097
1.454016 0.022539 0.162834
1.981298 0.370778 0.035979
0.033293 0.566292 0.249600
1.609265 0.677704 0.226083
2.031014 0.717976 0.184907
1.856327 0.955935 0.176079
2.015580 0.844944 0.092940
2.035106 0.799893 0.114166
1.861939 0.126847 0.224048
2.022126 0.726487 0.178634
2.027879 0.840318 0.184213
2.017479 0.630500 0.093234
1.883872 0.044683 0.166405
0.834813 0.026475 0.168594
0.038082 0.987439 0.128843
2.017105 0.149523 0.065801
2.002765 0.755692 0.135449
2.009781 0.723187 0.218147
2.024452 0.367358 0.155246
2.029788 0.686933 0.179488
0.070045 0.987797 0.007904
2.043170 0.614473 0.123196
2.022747 0.721939 0.186483
2.054804 0.758295 0.109029
2.041637 0.681193 0.088195
2.000301 0.875927 0.042103
2.000926 0.300494 0.207650
2.002114 0.947795 0.174869
0.376785 0.023974 0.080302
2.026112 0.916278 0.087320
2.030630 0.922772 0.068881
0.038005 0.988860 0.137636
2.043955 0.337547 0.127159
1.102919 0.883554 0.238036
2.014167 0.830135 0.092786
2.021179 0.297030 0.060840
2.006074 0.222603 0.150129
2.012553 0.718654 0.076826
0.199475 0.879849 0.246038
2.014067 0.221852 0.075742
2.022074 0.220839 0.125137
1.720583 0.038346 0.157186
2.024098 0.190148 0.166427
2.000155 0.115994 0.036692
2.031926 0.750208 0.100893
2.032816 0.780082 0.070591
0.982142 0.935125 0.018023
2.036882 0.229357 0.050515
1.148315 0.016240 0.192530
2.032852 0.230892 0.118425
0.305055 0.164206 0.227877
2.019598 0.843053 0.176573
2.016902 0.101517 0.145640
0.796716 0.462749 0.241735
2.045287 0.712677 0.129932
2.035427 0.694947 0.126864
2.048916 0.864810 0.125488
2.001647 0.913888 0.124021
1.987662 0.092710 0.042936
2.035264 0.224157 0.103852
2.025508 0.345656 0.154944
2.035546 0.726023 0.059531
2.008734 0.276993 0.174787
0.183062 0.027644 0.024909
2.014314 0.785718 0.158959
2.022817 0.412694 0.057546
1.892930 0.126444 0.026021
2.027677 0.625261 0.106097
2.002812 0.754347 0.144586
2.000397 0.043009 0.128105
2.012800 0.666294 0.074063
0.931941 0.612667 0.013986
1.291171 0.010872 0.096101
2.001944 0.360681 0.203661
2.009621 0.190728 0.054982
0.040962 0.704804 0.241264
1.014506 0.770321 0.014118
2.037639 0.183166 0.137945
2.002865 0.054265 0.168639
0.641924 0.972480 0.215092
2.030415 0.333994 0.097299
2.005081 0.638313 0.035432
2.021489 0.647323 0.134533
1.496586 0.954187 0.207008
1.405921 0.066405 0.020276
2.012652 0.670691 0.207114
2.017824 0.348008 0.065318
2.038313 0.328636 0.190803
2.017192 0.772864 0.111412
1.314833 0.502321 0.052247
2.022265 0.669826 0.040038
0.764122 0.985432 0.159935
1.933780 0.109193 0.213290
1.667861 0.157725 0.024764
2.022459 0.678012 0.204441
2.005690 0.712882 0.141472
1.214619 0.993061 0.143895
2.000333 0.953181 0.117134
2.019636 0.910267 0.135929
1.598157 0.292261 0.228764
2.006319 0.572720 0.097924
0.034710 0.996395 0.048890
0.403370 0.796456 0.005444
0.687632 0.639811 0.212655
2.007652 0.682386 0.138880
0.519165 0.623768 0.238675
2.005989 0.126293 0.114610
2.008474 0.747795 0.153841
2.001298 0.857592 0.150809
2.025124 0.119820 0.148109
0.851659 0.327834 0.013464
2.039586 0.412706 0.106171
2.024485 0.316321 0.073033
1.288714 0.883302 0.233975
2.013345 0.882962 0.090390
0.037391 0.188114 0.013148
2.015784 0.275097 0.093220
2.010821 0.308547 0.173000
2.033909 0.289244 0.112282
2.042875 0.331086 0.077792
2.039336 0.339690 0.068817
2.034917 0.195737 0.108191
2.013953 0.922460 0.103780
2.027577 0.749487 0.077519
2.000638 0.887062 0.082849
2.043238 0.860607 0.086299
2.022557 0.107515 0.035134
2.012521 0.933139 0.107317
2.021264 0.348509 0.201991
2.015875 0.174592 0.025673
2.036560 0.107947 0.066608
0.135475 0.964401 0.239196
2.018576 0.840891 0.076544
1.840242 0.775531 0.029750
2.025381 0.883073 0.216368
2.003428 0.277166 0.164066
2.040073 0.728954 0.132857
1.311385 0.246741 0.219947
1.589809 0.052086 0.034835
2.013732 0.699957 0.037390
2.038919 0.091718 0.151174
2.007386 0.174686 0.037130
2.010286 0.565693 0.109033
0.970871 0.395392 0.228578
1.671112 0.562939 0.181641
2.010992 0.147421 0.096275
2.023444 0.832276 0.209149
2.038118 0.748146 0.141266
2.007447 0.660923 0.215475
2.007343 0.252245 0.045028
2.038461 0.336184 0.102265
2.032140 0.948573 0.123652
1.748251 0.115941 0.029714
2.013046 0.936125 0.068833
2.036578 0.240857 0.056613
0.949488 0.432200 0.016776
2.019009 0.931509 0.079621
2.026656 0.128085 0.135971
2.011742 0.078111 0.152927
0.143597 0.510244 0.232883
2.005825 0.296214 0.042500
1.565169 0.202127 0.233517
2.020640 0.930446 0.117839
2.012230 0.680055 0.167305
2.024435 0.735181 0.039485
2.025570 0.769084 0.186028
2.012501 0.643426 0.035387
0.742066 0.987440 0.197884
0.039659 0.426764 0.015982
2.002534 0.716035 0.146029
0.052485 0.373734 0.241831
1.695015 0.050199 0.039224
2.028122 0.221336 0.119898
2.000288 0.313538 0.179206
0.013059 0.514065 0.240927
1.006891 0.253557 0.230686
1.075895 0.020094 0.041471
2.023364 0.091646 0.073414
0.007811 0.605221 -0.000325
2.022095 0.088833 0.073625
2.023175 0.607116 0.038665
2.028521 0.663280 0.028983
0.012058 0.278238 0.235689
2.048770 0.749451 0.090866
2.029164 0.787634 0.187305
1.858891 0.584746 0.038319
2.001214 0.102727 0.166548
1.449705 0.980569 0.066723
0.711420 0.120508 0.025954
2.016937 0.339622 0.074967
0.018953 0.890552 0.250145
2.000588 0.799573 0.125313
2.018788 0.585346 0.066433
2.010143 0.602290 0.201903
2.028930 0.271324 0.174884
2.010875 0.104483 0.044686
0.310454 0.982376 0.217043
2.026492 0.348990 0.140628
1.683191 0.921907 0.226131
2.033815 0.595950 0.076129
0.258649 0.010923 0.209219
2.031101 0.930411 0.137363
2.004660 0.865858 0.205160
2.002627 0.901958 0.043426
2.025588 0.792722 0.125310
2.036936 0.079405 0.138733
1.440144 0.973400 0.204130
2.006244 0.790524 0.087015
0.799242 0.022106 0.039469
0.638866 0.020354 0.164079
1.527097 0.326792 0.064382
0.016019 0.747536 0.010978
2.007610 0.172173 0.078813
2.007702 0.234239 0.216311
1.326674 0.496522 0.053768
0.633906 0.535825 0.228889
2.020352 0.301361 0.168629
2.011723 0.880291 0.032407
2.054257 0.245705 0.112442
1.169286 0.476548 0.107905
2.005327 0.901170 0.181384
2.004935 0.129279 0.216811
2.014286 0.350295 0.187820
2.016464 0.939830 0.139259
2.040402 0.096788 0.101012
2.001294 0.107314 0.184666
0.914383 0.025580 0.213510
2.038295 0.102904 0.177095
2.025195 0.408903 0.144709
1.708281 0.966827 0.087921
2.020001 0.799353 0.160508
2.012249 0.715509 0.135389
1.019563 0.994868 0.089582
0.034259 -0.000089 0.183998
2.032238 0.901429 0.052711
0.732849 0.481841 0.008765
2.047931 0.313367 0.104281
2.023425 0.371297 0.189176
2.033696 0.125638 0.135117
1.999710 0.672232 0.029735
2.009439 0.111121 0.210674
0.153000 0.985890 0.021357
2.001362 0.282336 0.081177
1.694594 0.346765 0.219956
2.016776 0.724579 0.168284
0.013225 0.012196 0.084973
2.007751 0.161367 0.097244
0.371624 0.958750 0.016354
2.021828 0.925834 0.076102
1.887787 0.091034 0.207729
2.012108 0.659642 0.207532
2.023007 0.116935 0.149028
2.001221 0.669073 0.192203
2.049318 0.245117 0.121517
2.007857 0.404492 0.211926
2.014259 0.206345 0.053412
2.029388 0.052975 0.176435
0.462063 0.988881 0.168383
2.017891 0.273142 0.089601
1.712455 0.066414 0.032125
2.001818 0.350240 0.144337
2.018226 0.826991 0.177203
1.366079 0.502255 0.194150
2.040798 0.271093 0.087862
2.039047 0.789668 0.048091
1.078606 0.059496 0.018284
1.685492 0.922143 0.218842
2.010548 0.695931 0.089083
2.015575 0.353923 0.199898
2.014640 0.582777 0.057398
2.024173 0.282589 0.075697
1.996467 0.697857 0.225605
2.025903 0.091580 0.162508
2.039833 0.740614 0.110457
2.045441 0.386358 0.068500
1.255640 0.018466 0.194940
2.035768 0.751377 0.149175
2.021132 0.167951 0.105210
2.030107 0.426089 0.134212
0.940462 0.639577 0.016544
2.017631 0.345764 0.201357
2.033975 0.332578 0.095046
2.024310 0.858399 0.143123
1.684117 0.314963 0.025949
2.036353 0.070023 0.119429
2.006043 0.826376 0.044697
2.033033 0.715423 0.127692
2.040083 0.091923 0.085418
2.023243 0.436303 0.110260
2.038732 0.267869 0.046259
2.022422 0.186151 0.198259
2.029531 0.103716 0.205389
2.015052 0.920555 0.112129
0.357065 0.617862 0.003402
0.222722 0.684448 0.247201
2.017961 0.096528 0.184175
2.003892 0.262647 0.030832
2.024277 0.380779 0.080066
0.585113 0.647577 0.012651
2.000152 0.715168 0.043558
2.015801 0.293648 0.220570
2.019767 0.325567 0.131726
2.010451 0.114133 0.153634
2.014853 0.372002 0.213192
0.728602 0.022209 0.039516
2.018938 0.868010 0.039757
2.008738 0.657800 0.178482
0.041542 0.572196 0.013974
1.301276 0.747295 0.223638
1.877385 0.040415 0.161749
1.746677 0.063037 0.213979
2.024197 0.296343 0.159639
1.745444 0.733726 0.022069
2.003979 0.189402 0.181230
0.047646 0.852974 -0.000133
1.941679 0.857941 0.220970
0.365485 0.953212 0.011509
0.150217 0.003442 0.208234
2.007821 0.839730 0.099613
2.028238 0.101937 0.203735
0.028290 0.374300 0.239549
2.006695 0.889089 0.035418
2.033046 0.667468 0.200239
1.445297 0.508543 0.126668
0.071808 0.940566 0.002774
2.017117 0.290534 0.208101
0.018182 0.389058 0.245920
2.042207 0.866436 0.076275
1.682426 0.956439 0.052562
2.005977 0.763890 0.090744
1.317387 0.500146 0.053127
1.648255 0.960351 0.052811
2.019777 0.409893 0.057595
2.007231 0.605300 0.202884
2.003610 0.932416 0.091151
2.013677 0.949706 0.108499
0.991195 0.984774 0.071071
0.856229 0.013083 0.056024
1.459076 0.020365 0.177225
2.019279 0.075744 0.157400
2.007864 0.166258 0.184835
2.007855 0.119610 0.200900
2.033492 0.829768 0.188287
2.009141 0.738372 0.125480
</DataArray>
</Points>
<PointData>
<DataArray NumberOfComponents='1' type='Int32' Name='ParticleType' format='ascii'>
1
1
1
1
1
1
1
1
1
1
1
1
1
1
1
1
1
1
1
1
1
1
1
1
1
1
1
1
1
1
1
1
1
1
1
1
1
1
1
1
1
1
1
1
1
1
1
1
1
1
1
1
1
1
1
1
1
1
1
1
1
1
1
1
1
1
1
1
1
1
1
1
1
1
1
1
1
1
1
1
1
1
1
1
1
1
1
1
1
1
1
1
1
1
1
1
1
1
1
1
1
1
1
1
1
1
1
1
1
1
1
1
1
1
1
1
1
1
1
1
1
1
1
1
1
1
1
1
1
1
1
1
1
1
1
1
1
1
1
1
1
1
1
1
1
1
1
1
1
1
1
1
1
1
1
1
1
1
1
1
1
1
1
1
1
1
1
1
1
1
1
1
1
1
1
1
1
1
1
1
1
1
1
1
1
1
1
1
1
1
1
1
1
1
1
1
1
1
1
1
1
1
1
1
1
1
1
1
1
1
1
1
1
1
1
1
1
1
1
1
1
1
1
1
1
1
1
1
1
1
1
1
1
1
1
1
1
1
1
1
1
1
1
1
1
1
1
1
1
1
1
1
1
1
1
1
1
1
1
1
1
1
1
1
1
1
1
1
1
1
1
1
1
1
1
1
1
1
1
1
1
1
1
1
1
1
1
1
1
1
1
1
1
1
1
1
1
1
1
1
1
1
1
1
1
1
1
1
1
1
1
1
1
1
1
1
1
1
1
1
1
1
1
1
1
1
1
1
1
1
1
1
1
1
1
1
1
1
1
1
1
1
1
1
1
1
1
1
1
1
1
1
1
1
1
1
1
1
1
1
1
1
1
1
1
1
1
1
1
1
1
1
1
1
1
1
1
1
1
1
1
1
1
1
1
1
1
1
1
1
1
1
1
1
1
1
1
1
1
1
1
1
1
1
1
1
1
1
1
1
1
1
1
1
1
1
1
1
1
1
1
1
1
1
1
1
1
1
1
1
1
1
1
1
1
1
1
1
1
1
1
1
1
1
1
1
1
1
1
1
1
1
1
1
1
1
1
1
1
1
1
1
1
1
1
1
1
1
1
1
1
1
1
1
1
1
1
1
1
1
1
1
1
1
1
1
1
1
1
1
1
1
1
1
1
1
1
1
1
1
</DataArray>
<DataArray NumberOfComponents='1' type='Int32' Name='ParticleID' format='ascii'>
0
1
2
3
4
5
6
7
8
9
10
11
12
13
14
15
16
17
18
19
20
21
22
23
24
25
26
27
28
29
30
31
32
33
34
35
36
37
38
39
40
41
42
43
44
45
46
47
48
49
50
51
52
53
54
55
56
57
58
59
60
61
62
63
64
65
66
67
68
69
70
71
72
73
74
75
76
77
78
79
80
81
82
83
84
85
86
87
88
89
90
91
92
93
94
95
96
97
98
99
100
101
102
103
104
105
106
107
108
109
110
111
112
113
114
115
116
117
118
119
120
121
122
123
124
125
126
127
128
129
130
131
132
133
134
135
136
137
138
139
140
141
142
143
144
145
146
147
148
149
150
151
152
153
154
155
156
157
158
159
160
161
162
163
164
165
166
167
168
169
170
171
172
173
174
175
176
177
178
179
180
181
182
183
184
185
186
187
188
189
190
191
192
193
194
195
196
197
198
199
200
201
202
203
204
205
206
207
208
209
210
211
212
213
214
215
216
217
218
219
220
221
222
223
224
225
226
227
228
229
230
231
232
233
234
235
236
237
238
239
240
241
242
243
244
245
246
247
248
249
250
251
252
253
254
255
256
257
258
259
260
261
262
263
264
265
266
267
268
269
270
271
272
273
274
275
276
277
278
279
280
281
282
283
284
285
286
287
288
289
290
291
292
293
294
295
296
297
298
299
300
301
302
303
304
305
306
307
308
309
310
311
312
313
314
315
316
317
318
319
320
321
322
323
324
325
326
327
328
329
330
331
332
333
334
335
336
337
338
339
340
341
342
343
344
345
346
347
348
349
350
351
352
353
354
355
356
357
358
359
360
361
362
363
364
365
366
367
368
369
370
371
372
373
374
375
376
377
378
379
380
381
382
383
384
385
386
387
388
389
390
391
392
393
394
395
396
397
398
399
400
401
402
403
404
405
406
407
408
409
410
411
412
413
414
415
416
417
418
419
420
421
422
423
424
425
426
427
428
429
430
431
432
433
434
435
436
437
438
439
440
441
442
443
444
445
446
447
448
449
450
451
452
453
454
455
456
457
458
459
460
461
462
463
464
465
466
467
468
469
470
471
472
473
474
475
476
477
478
479
480
481
482
483
484
485
486
487
488
489
490
491
492
493
494
495
496
497
498
499
</DataArray>
<DataArray NumberOfComponents='1' type='Int8' Name='IsActive' format='ascii'>
1
0
1
0
0
1
0
0
1
1
0
1
1
1
0
0
0
0
1
0
0
1
0
1
0
0
1
0
1
1
0
1
1
0
1
0
0
0
0
0
1
1
1
1
0
1
1
0
0
0
0
1
0
1
1
0
1
1
0
1
1
0
1
0
0
1
1
0
0
0
0
1
1
0
1
1
0
0
0
0
1
0
0
0
0
1
1
0
0
0
1
0
0
0
0
0
1
0
0
0
0
1
0
0
0
0
0
0
0
0
0
0
1
0
0
0
0
0
1
1
1
1
0
0
0
1
0
0
0
0
1
1
0
0
0
0
0
0
1
1
0
0
0
0
0
1
1
0
0
0
0
0
0
0
1
1
1
1
1
1
0
1
0
0
1
0
0
0
1
1
1
0
0
0
0
0
1
0
0
0
0
0
0
0
1
0
0
1
0
1
0
0
0
0
1
0
0
1
0
0
0
0
1
0
1
0
1
0
0
1
0
0
0
0
1
0
0
0
0
1
0
0
1
0
0
0
0
1
1
0
0
1
1
0
0
1
0
0
0
1
1
0
0
0
0
1
0
1
1
1
0
0
1
0
0
1
0
1
1
1
0
1
0
0
0
0
1
0
0
1
0
1
0
0
0
0
0
0
0
0
0
0
0
0
0
0
0
1
0
1
0
0
0
1
1
0
0
0
0
1
1
0
0
0
0
0
0
0
1
0
0
1
0
0
0
1
0
1
0
0
0
0
0
1
1
0
1
1
0
0
1
1
1
0
0
0
0
0
1
0
0
1
0
1
1
0
0
0
0
0
0
0
1
0
1
0
1
0
0
0
0
0
1
0
1
1
1
1
0
0
1
1
0
0
0
1
0
0
0
0
0
0
1
0
0
1
0
0
1
0
0
1
0
0
0
1
0
1
0
1
0
1
0
1
0
1
0
0
0
0
0
0
1
1
0
1
0
0
1
0
0
1
1
0
0
0
0
1
0
0
0
1
0
0
0
1
0
0
0
1
0
0
0
0
0
0
0
0
0
1
1
0
0
0
1
0
0
0
0
0
1
0
0
1
1
1
1
0
1
0
0
1
1
1
0
0
1
0
0
1
1
0
1
0
1
0
1
1
0
0
0
0
1
1
1
0
0
0
0
0
</DataArray>
<DataArray NumberOfComponents='1' type='Int32' Name='ParticleTetID' format='ascii'>
80967
-50400
49067
-69862
-102510
41397
-69112
-82730
21495
104201
-90622
45652
104637
95500
-82225
-93293
-91090
-74058
26276
-98831
-12127
1093
-98411
77591
-93293
-102840
61401
-91191
100560
105896
-34180
62023
98299
-39168
-100141
-81615
-69112
-42296
-100758
-96731
101521
88914
64219
49891
-90119
7801
94294
-93119
-79211
-82225
-90337
80251
-25302
76283
77410
-96944
80677
2617
-27681
87975
-90622
-90337
20471
-57434
-90680
72893
104900
-27681
-44138
-104925
-80727
41643
9628
-96019
80251
104975
-75610
-98411
-34180
-57434
67034
-57434
-89958
-42296
-102510
100665
94716
-50400
-98306
-69112
4935
-93293
-104802
-99907
-83399
-79063
99903
-90337
-79597
-82515
-90622
27941
-96019
-58762
-86274
-93119
-58762
-98765
-86274
-97395
-96731
-44272
44625
-24526
-82225
-92602
-87306
-96325
98699
79885
82439
71687
-74058
-98831
-39168
42120
-98765
-39168
-17626
-96893
41140
55060
-96325
-104925
-58762
-64130
-96944
-104802
55298
65667
-95998
-92602
-88016
-12127
-70156
80665
74727
-70156
-92373
-88016
-44138
-105710
-83215
-102510
62144
89909
79236
16699
99903
60863
-39168
19249
-96019
-17626
79036
-39168
-90337
-74393
32609
23270
97137
-87514
-102840
-82225
-93819
-39168
99809
-96354
-39168
-102840
-91248
-105531
-91090
-74058
35166
-89958
-89958
97137
-96849
68470
-96019
-92373
-85990
-91248
98918
-69112
-83215
34707
-85990
-96893
-102840
-83820
48076
-64130
98981
-83215
71921
-90337
-98831
99049
-34180
-104802
-98210
-27681
97066
-69112
-98308
-91248
-61396
86348
-70156
-46315
38376
-74393
-102840
-100053
-82524
98913
8275
-96944
-70433
69970
94543
-99021
-104925
32904
-83399
-90231
-104802
105706
100488
-81615
-58762
-98308
-102510
31400
-90231
81139
14846
80447
-82225
-34180
78324
-90339
-27681
80885
-84540
99980
43761
23592
-104802
41022
-42296
-93119
-98210
-42296
91634
-90131
-83399
67354
-96019
85474
-94130
-91191
-25302
-83399
-58762
-99021
-79211
-98411
-48492
-96019
-96893
-79211
-96944
-70433
-100353
103165
-96019
52795
-105710
-61396
-34180
66452
104574
-90680
-98831
-70433
-100422
57107
24776
-24687
-82730
-102840
-81615
-90622
-83399
-27681
15918
-89958
-64130
1218
-89958
-42296
-104925
55060
-88016
73945
-27681
-57434
-92602
-94146
-90231
20335
74099
-34180
61667
85408
-83215
-91191
100092
4474
81730
-96731
-101355
-96731
-104379
-90231
98826
-98411
-94146
91002
-44138
96724
93514
-58762
-71594
-17626
-25092
-78226
-61396
-96893
106070
-96849
82480
-25092
70265
-27681
-99052
-105531
-17626
-98831
40274
-83820
35929
51271
25523
100743
-56272
-82325
74613
6085
-91191
-105531
-83215
62488
-96325
-82515
-98308
-43214
-98306
-44138
63076
-44138
-19405
66911
-70156
-34180
98026
-101044
-48492
65973
-94130
-98308
-42296
101125
-82515
101296
-94130
40200
-93119
101509
-24687
47729
-89958
4148
-81615
-42296
-42146
-83215
-89384
-70433
-104925
77591
-94130
90172
-99096
-69862
29085
-94130
-99911
66629
82480
-91248
-96944
-25092
-92373
82224
-104925
-102840
-24526
93470
-102840
-24687
-19405
78394
-96944
-83399
-98210
2503
-98831
-79597
-34180
-96731
-69914
-92373
-99721
-44138
-27681
53417
97654
-44138
-101289
-24526
4180
-90680
-91090
-50400
-42296
-96944
65395
-105531
-42146
88021
28544
40122
59922
-95447
59081
-99721
-100561
68619
73259
100376
-96019
-44138
101063
-105531
-42146
17026
99121
-91090
101063
-96019
37670
-98411
31400
105095
-46315
-78226
-79211
-79211
64204
56128
78753
-104925
-99721
-44138
-90337
-102840
</DataArray>
<DataArray NumberOfComponents='3' type='Float32' Name='vels' format='ascii'>
7.100589 -1.542760 -0.009344
22.746117 0.571945 -0.290697
1.013863 0.001461 0.000808
20.081773 -0.217840 -0.277921
23.484112 -0.510887 0.083072
1.188825 -0.013601 0.000055
20.333378 0.277334 -0.621174
12.783111 0.221707 0.073535
10.554357 -1.671294 -0.031029
0.909635 -0.102838 -0.000339
0.217718 0.013813 0.058638
1.289987 -0.002897 0.003646
1.861944 -0.973425 0.001591
16.257525 -5.402639 0.007267
13.642843 -0.263199 -0.225210
20.644419 -0.244898 0.011251
14.087736 0.281257 1.252631
14.293141 1.904616 0.878634
13.620435 -1.050624 -0.033458
19.044396 -1.244907 -0.238396
21.835456 0.067503 1.640637
5.812497 -0.114344 0.003078
20.051412 -0.328575 -0.076616
2.203685 0.004202 0.018191
18.297037 -0.214221 0.115799
22.591256 -0.226395 0.244628
3.791909 -0.278537 0.219127
21.418610 0.522880 0.667956
0.179650 0.073893 -0.000196
17.900349 -0.113848 0.031316
22.058982 -0.221339 0.905368
2.642397 -0.769354 -0.000153
10.682688 -0.217453 -0.065006
19.420937 -0.419907 0.689956
9.525294 1.051627 0.162017
9.873437 -0.276749 0.223623
19.690416 0.183231 -1.354405
17.262796 -0.581290 -0.236368
13.020581 -0.450925 -1.719911
13.718675 -1.653544 -1.157650
8.011183 0.535685 -0.067553
5.033806 -1.904749 0.002616
2.857266 -0.185639 0.000951
6.152363 -0.147158 -0.024838
23.253517 -0.506630 -0.243077
3.197341 0.015000 -0.000211
-0.027740 0.012555 -0.002522
21.234953 -0.478901 -0.021576
16.783738 0.725048 0.022270
15.336051 -0.375124 2.450828
15.641460 0.592641 2.478244
0.030815 -0.026276 0.009094
23.583462 0.705706 0.031841
0.754061 -0.003385 -0.000272
4.621980 -5.541617 0.135330
12.898903 0.342379 1.238865
11.488508 -0.779666 0.019458
10.965895 0.333031 0.106353
16.294222 1.334800 -0.294998
14.158111 0.721005 -0.036424
5.808161 -0.012437 -0.307565
15.971599 0.661878 2.362355
1.755837 0.003228 -0.004105
16.469972 -0.440812 0.460427
8.803361 -0.053175 -1.230980
0.590745 0.004863 -0.000194
9.242947 0.851579 0.030888
16.358776 2.099030 -0.512324
13.698757 -1.440865 2.243215
12.106804 0.099396 -0.173926
20.829917 -0.376475 0.351593
13.328440 4.852008 0.048825
13.646150 -0.468652 -0.036093
21.624399 0.251894 -0.102345
0.005227 0.005311 0.001293
0.852415 -0.184744 0.000120
18.270654 -0.489875 0.186874
16.029687 -0.488661 0.199500
22.453575 -0.519201 0.546982
20.858756 -0.561026 1.745228
11.988943 -2.762146 0.019044
22.318605 -0.637696 0.060034
12.451290 1.606906 -1.239628
17.872999 -0.508012 -0.210598
21.544261 -0.576351 -0.237666
6.294408 -2.152302 0.002705
8.526828 -0.012337 0.054245
22.850020 0.504740 0.291769
16.743318 -0.167094 -0.066923
20.405083 0.175823 -1.416689
14.029824 -3.373651 0.014186
18.397170 2.312845 0.926571
22.928140 -0.721532 0.020940
1.092060 -0.057378 -0.099089
21.674624 0.629290 -1.020716
0.117633 0.000420 0.000014
-0.107213 0.034923 0.007900
18.277976 1.459873 2.053854
15.193783 -0.200755 0.411678
8.382616 -1.056661 1.118900
9.911597 0.030293 -0.531683
4.172452 0.009502 -0.022906
16.604183 0.954922 -1.554912
16.518350 0.455337 -2.328386
22.200797 0.725471 -0.532589
19.328759 -0.349707 0.354440
19.388330 0.531497 -1.176200
23.505890 -0.017541 0.011079
21.587448 0.974728 -0.641169
9.527705 -1.530749 -0.112747
16.482712 -1.531327 -0.673981
20.251569 0.364379 1.295825
2.218648 0.054349 0.008054
22.036278 0.624905 -0.469285
14.124127 -0.284270 -0.217126
10.498283 -0.075992 -0.761585
21.786999 -0.601339 -0.143358
14.298232 0.925327 0.629781
0.478926 0.000306 -0.002141
4.622284 -0.123717 0.320527
0.926540 -0.006583 0.002410
10.903883 0.401681 -0.130025
14.099799 2.576252 1.169191
13.357897 -0.648771 -0.039844
17.437643 -0.326126 1.677305
7.794530 -0.821352 -0.008526
23.130137 -0.019389 0.136113
16.798710 -0.409249 0.846982
21.975496 -0.398811 0.347033
11.426230 -1.001875 -1.211797
8.446615 0.338111 -0.061288
10.601145 0.016856 0.080893
17.775444 0.811653 0.366037
14.614608 -2.401172 0.802102
16.323602 0.461840 -1.527500
20.101702 0.219511 -1.888051
10.340887 0.260235 0.538024
23.078656 -0.988561 -0.027553
4.026983 0.049479 -0.007639
1.517730 -0.611216 0.012467
22.910553 -0.665074 -0.024346
15.478941 0.434950 -2.683764
3.843808 0.025786 -0.011749
23.086697 0.462772 0.127130
20.097993 -0.001831 0.998274
7.054958 0.053722 -0.052714
5.375784 -0.098497 -0.025808
21.604291 0.016050 0.594368
20.440455 0.307652 -1.507826
3.309534 0.025848 -0.069147
16.746200 -1.534288 1.226030
10.253146 0.947459 1.119102
23.785807 0.531745 -0.031865
21.848852 0.420922 0.793156
9.415535 -0.216477 0.020716
6.984457 -0.161586 0.022747
12.794885 0.242859 -0.103137
6.719650 0.197630 0.166465
-0.072480 0.005227 0.010681
8.585367 -6.786854 -0.021376
17.330247 -0.352344 1.789258
9.429656 -0.309540 -0.080549
19.581049 0.422816 -0.371368
23.074533 -0.332614 -0.039117
8.050640 0.546824 -0.010357
16.564731 -0.331065 1.203524
19.095386 0.410807 1.106184
21.597133 -0.714607 0.164443
9.798879 0.184731 0.009052
7.910929 -0.221285 0.009699
0.022668 -0.005125 0.002507
18.889380 -0.021748 0.028150
23.744358 -0.623742 0.078356
6.083785 -0.114745 0.693848
21.550093 0.597724 0.177560
19.931805 -0.620684 -0.104144
0.205993 0.003671 -0.000671
22.186483 -0.580909 0.085191
18.532700 -0.364004 0.898198
22.731125 -0.410106 -0.267865
16.903104 -0.287756 -3.000994
2.618152 0.214458 0.047809
14.810948 0.363075 0.196271
10.891050 0.859468 0.466115
5.032900 -0.030222 0.001667
15.925088 1.660978 -1.064572
13.425174 2.439846 -1.661108
-0.020287 -0.000928 -0.004157
22.474392 0.693944 0.051149
7.825987 0.583364 -0.001827
16.990761 0.499263 -0.526326
17.556272 0.387056 -1.088772
22.424382 0.267650 -0.125181
19.438241 -0.645570 0.307630
1.298734 0.010425 -0.000538
19.790404 0.145941 -0.245545
23.805036 0.246133 -0.090822
10.980881 0.476891 -0.003726
17.974424 -0.188307 1.097113
11.220117 -0.667190 -0.338685
22.916248 -0.253452 -0.514480
18.818351 0.349067 -1.391396
7.707073 0.651274 0.004424
15.899244 0.166904 -2.510908
9.120529 -0.050082 0.003297
23.480659 0.156312 -0.174877
16.657613 -0.162004 0.021634
18.643998 0.568643 0.689326
18.384430 -0.878138 0.303210
1.908238 -0.204199 -0.002322
23.583081 -0.560089 0.024302
23.161558 -0.767744 -0.045548
20.291565 1.561776 -0.694303
16.401910 -0.321120 -0.053734
10.003543 -0.326273 0.040019
21.410000 0.626257 0.310330
18.442322 0.652253 -0.220620
17.690202 -0.279277 -2.290119
18.769647 0.377517 0.667154
0.072356 0.003178 0.000103
17.750980 -0.020871 0.508239
17.540848 0.458101 -1.060460
7.799125 0.440563 0.031015
20.417662 -0.645471 0.231195
23.602854 -0.615112 0.038929
12.160696 -1.012091 0.189499
18.576584 -0.501876 -0.358508
2.929013 2.826275 -0.011083
7.191939 -0.007085 -0.029901
13.702585 0.396953 0.289287
6.917325 -0.024386 0.013341
-0.082841 -0.032932 0.006222
12.766046 7.064725 -0.027776
21.328316 0.562810 0.238438
12.057405 0.044548 -0.097366
3.372169 0.065842 -0.001826
22.195289 0.732663 -0.247530
2.252395 -0.033993 0.023985
22.344953 -0.609651 0.782143
0.841772 0.191048 -0.108394
10.960078 0.307927 0.049034
15.872573 -0.624415 -0.376809
21.407858 0.824238 0.337188
17.297617 0.488402 2.433505
23.606339 -0.372745 -0.031862
3.503658 0.300854 -0.240029
13.166489 -0.210343 -1.750043
3.973563 0.036457 0.019182
9.382555 0.306077 -0.084398
10.456851 2.329312 0.004491
14.328609 -0.354769 1.438157
21.838368 -0.661170 -0.191753
4.913753 -0.006129 0.000496
1.967034 -0.040918 -0.033000
15.580226 -0.323972 0.093963
7.134482 4.896369 -0.025023
21.053992 -0.422851 0.024730
0.012785 0.001662 0.041967
1.854779 0.037887 -0.000658
17.222802 1.709814 0.007099
23.244983 -0.730652 -0.131282
3.894426 0.159795 -0.000417
20.722970 -0.207133 -0.102217
22.750940 -0.531753 0.033055
20.545453 -0.083357 -0.102342
20.285490 -0.903266 0.046184
3.778087 -1.992363 0.001583
21.801124 0.497681 -0.757091
19.879728 0.548398 -0.714806
9.131191 0.011688 0.005603
18.274489 0.518023 -0.272507
0.074149 0.005185 -0.009116
22.049778 0.519534 -0.195881
19.783170 0.573937 0.196976
23.087101 0.531150 0.110178
20.744513 0.554739 -1.416790
18.689961 0.464014 -2.153891
22.952633 -0.348073 -0.012363
15.385875 1.081334 -0.018862
20.312842 -0.228192 -0.737240
18.555870 0.457150 -0.153506
18.423548 1.307541 -2.021391
10.524621 -1.063843 -1.645949
16.597472 0.870109 0.031602
13.153952 0.251382 1.635128
15.026963 -0.710945 -2.419758
15.862789 -1.859636 -1.900831
1.699145 0.012920 0.007638
20.159521 0.339274 -0.414015
10.257776 -1.381511 0.009619
12.441263 0.840484 0.891875
21.204620 0.562607 -0.004813
21.937366 -0.464106 0.805875
11.530725 -2.173111 0.166283
11.080153 0.569453 0.096019