<VTKFile type='UnstructuredGrid' version='1.0' byte_order='LittleEndian' header_type='UInt64'>
<UnstructuredGrid>
<Piece NumberOfCells='500' NumberOfPoints='500'>
<Points>
<DataArray NumberOfComponents='3' type='Float32' Name='Position' format='ascii'>
1.219171 0.808062 0.227289
2.041913 0.322548 0.117272
0.267108 0.978221 0.221216
2.032789 0.817449 0.183718
2.006422 0.772777 0.106364
0.139730 0.192874 0.246308
2.021840 0.236634 0.075397
1.871045 0.822715 0.208438
1.208741 0.812444 0.224805
1.172534 0.874715 0.227934
1.433533 0.128226 0.035488
0.251378 0.006893 0.058041
1.020821 0.730329 0.221370
0.613358 0.241859 0.237764
1.538441 0.825494 0.215311
2.029884 0.896507 0.149988
1.862233 0.259209 0.203863
1.833678 0.929840 0.160372
0.941194 0.859367 0.219126
2.028493 0.103892 0.112536
2.053310 0.240382 0.149626
0.108500 0.108392 0.228900
2.013011 0.752185 0.079681
0.293761 0.991982 0.150461
2.010016 0.889759 0.129730
2.047684 0.745451 0.119795
1.221973 0.490704 0.095459
2.034071 0.303870 0.160488
0.039183 0.850964 0.003383
0.842965 0.948911 0.221432
2.049422 0.718082 0.151819
0.527369 0.306474 0.242163
0.883875 0.972376 0.186023
2.022542 0.715620 0.181877
1.400598 0.977913 0.129392
1.835054 0.650469 0.201878
2.032977 0.238094 0.074622
2.000648 0.118576 0.122908
1.636381 0.694814 0.044849
1.848620 0.086044 0.068228
1.097750 0.052548 0.216401
0.557388 0.283480 0.239590
0.361713 0.291773 0.006934
0.578852 0.037528 0.032272
2.007880 0.710244 0.115067
0.195215 0.525619 0.007865
0.028965 0.127794 0.019741
2.001995 0.747523 0.166309
1.777025 0.939129 0.106717
1.957751 0.686418 0.197730
2.034140 0.855777 0.176953
0.022792 0.667517 0.223963
2.008327 0.295468 0.130869
0.040975 0.850491 0.002800
0.892249 0.449052 0.226836
1.627994 0.259258 0.208607
0.768309 0.877344 0.230456
1.356717 0.225683 0.037204
2.020040 0.916381 0.117455
1.084013 0.027908 0.167290
1.263932 0.131542 0.027222
2.033928 0.852710 0.179680
0.210178 0.993274 0.194077
2.009942 0.676050 0.191148
1.893332 0.713220 0.044930
0.185507 0.723972 0.001931
1.152946 0.187812 0.028993
2.031539 0.915199 0.125560
1.477006 0.064353 0.204582
2.018562 0.097872 0.154440
2.032726 0.151930 0.157049
0.937015 0.379351 0.025397
1.207620 0.981194 0.114862
2.012379 0.857800 0.088540
0.041093 0.653158 0.242707
1.048902 0.774905 0.028094
2.006516 0.709664 0.056035
2.006612 0.733044 0.069206
2.032027 0.708061 0.156368
2.047422 0.659033 0.158041
0.316249 0.207263 0.213455
2.008623 0.671327 0.150335
1.731792 0.934817 0.068118
2.000212 0.119345 0.120454
2.027649 0.788814 0.122788
0.569447 0.247326 0.239476
0.803733 0.973839 0.186933
2.037782 0.301018 0.135393
2.000514 0.077327 0.105807
2.037639 0.231862 0.074891
0.903059 0.678897 0.021353
2.043692 0.901627 0.126913
2.041219 0.688146 0.137356
1.706479 0.185450 0.040382
2.033186 0.327317 0.104475
0.189628 0.612475 0.249065
0.030664 0.560997 0.248518
2.044269 0.818918 0.199550
1.895117 0.850281 0.048351
1.665605 0.109173 0.201569
1.912092 0.231004 0.047046
0.165991 0.980773 0.172431
2.030091 0.839346 0.098504
2.033268 0.354557 0.077770
2.041484 0.819601 0.133527
2.016896 0.735843 0.177114
2.005133 0.350592 0.093012
2.030378 0.211665 0.125291
2.051344 0.818365 0.128576
1.553010 0.030224 0.114386
2.015030 0.096685 0.090606
1.914117 0.394856 0.184315
0.324283 0.908423 0.241613
2.022922 0.372593 0.103430
1.577509 0.813866 0.214609
1.895165 0.760409 0.041159
2.020701 0.649097 0.095229
2.010562 0.904400 0.171377
0.041550 0.992068 0.221667
1.213280 0.501025 0.072272
0.085776 0.043014 0.006038
1.572489 0.191892 0.212519
1.840684 0.924810 0.156025
1.935890 0.060643 0.123171
2.029796 0.721484 0.189331
1.048978 0.934959 0.027684
2.022575 0.188149 0.135854
2.017201 0.681083 0.191017
2.023163 0.803616 0.100864
1.621713 0.083995 0.039023
1.174846 0.089930 0.224495
0.011083 0.504332 0.222846
2.015481 0.887887 0.167531
1.839943 0.065214 0.147081
2.024290 0.352007 0.073397
2.044852 0.258797 0.047845
1.837968 0.357093 0.200955
2.018896 0.681016 0.127061
0.537205 0.983990 0.101033
0.773733 0.487511 0.233851
2.018782 0.639498 0.119193
2.033252 0.732225 0.044826
1.835847 0.295533 0.039787
2.020581 0.271387 0.143559
2.029636 0.772421 0.161292
0.739783 0.974417 0.190785
0.593793 0.017003 0.101697
2.030579 0.775512 0.178289
1.953073 0.274281 0.049353
1.820371 0.276299 0.039275
2.030297 0.105648 0.171593
1.654367 0.901674 0.208292
2.007401 0.237211 0.132114
2.043957 0.792899 0.145899
1.187524 0.978047 0.087299
1.049170 0.975988 0.175563
0.763788 0.034020 0.161477
1.332347 0.207088 0.033666
0.035454 0.567147 0.249114
0.985510 0.719499 0.225917
2.031014 0.717976 0.184907
1.226645 0.972512 0.178627
2.015580 0.844944 0.092940
2.035106 0.799893 0.114166
1.241992 0.077963 0.224800
2.022126 0.726487 0.178634
2.027879 0.840318 0.184213
2.017479 0.630500 0.093234
1.194822 0.027194 0.168804
0.572799 0.030684 0.168143
0.039041 0.988362 0.128887
2.017105 0.149523 0.065801
2.002765 0.755692 0.135449
1.505153 0.828725 0.217187
2.024452 0.367358 0.155246
2.029788 0.686933 0.179488
0.049490 0.985026 0.006641
2.043170 0.614473 0.123196
2.022747 0.721939 0.186483
2.054804 0.758295 0.109029
2.041637 0.681193 0.088195
1.456972 0.920235 0.041227
1.738759 0.270429 0.209029
1.523961 0.961354 0.174902
0.133547 0.023303 0.080701
2.026112 0.916278 0.087320
1.804187 0.922312 0.071839
0.038731 0.989526 0.137615
2.043955 0.337547 0.127159
0.703695 0.802091 0.236998
2.014167 0.830135 0.092786
2.021179 0.297030 0.060840
2.006074 0.222603 0.150129
2.012553 0.718654 0.076826
0.136512 0.880113 0.246462
2.014067 0.221852 0.075742
2.022074 0.220839 0.125137
0.954472 0.031252 0.157727
2.024098 0.190148 0.166427
1.505054 0.077864 0.036041
2.031926 0.750208 0.100893
2.032816 0.780082 0.070591
0.631517 0.906289 0.018749
2.036882 0.229357 0.050515
0.752018 0.027444 0.191577
2.032852 0.230892 0.118425
0.014620 0.160432 0.234521
2.019598 0.843053 0.176573
2.016902 0.101517 0.145640
0.521398 0.476009 0.241503
2.045287 0.712677 0.129932
2.035427 0.694947 0.126864
2.048916 0.864810 0.125488
2.001647 0.913888 0.124021
1.403624 0.056643 0.042332
2.035264 0.224157 0.103852
2.025508 0.345656 0.154944
2.035546 0.726023 0.059531
2.008734 0.276993 0.174787
0.147179 0.026858 0.023567
2.014314 0.785718 0.158959
1.792908 0.398003 0.059784
1.219890 0.077906 0.024279
2.027677 0.625261 0.106097
2.002812 0.754347 0.144586
1.360796 0.025917 0.128145
2.012800 0.666294 0.074063
0.733656 0.542976 0.014656
0.843865 0.018140 0.097838
1.742605 0.334902 0.204080
2.009621 0.190728 0.054982
0.040441 0.706749 0.241190
0.699238 0.612386 0.014261
2.037639 0.183166 0.137945
1.492469 0.036913 0.169297
0.409842 0.970418 0.214808
2.030415 0.333994 0.097299
1.546750 0.761256 0.033544
2.021489 0.647323 0.134533
0.882419 0.946115 0.207284
0.812930 0.092639 0.020667
1.740809 0.700798 0.209139
2.017824 0.348008 0.065318
2.038313 0.328636 0.190803
2.017192 0.772864 0.111412
1.107766 0.500925 0.051990
1.818128 0.683246 0.042593
0.500141 0.980987 0.159691
1.214767 0.066481 0.213716
0.857448 0.162042 0.024759
1.917614 0.681920 0.201936
2.005690 0.712882 0.141472
0.901115 0.988481 0.142517
1.514049 0.968916 0.115698
2.019636 0.910267 0.135929
0.944312 0.290070 0.227840
2.006319 0.572720 0.097924
0.033415 0.995580 0.046426
0.245541 0.793859 0.005169
0.004514 0.624769 0.215474
2.007652 0.682386 0.138880
0.209680 0.618849 0.238833
2.005989 0.126293 0.114610
2.008474 0.747795 0.153841
2.001298 0.857592 0.150809
2.025124 0.119820 0.148109
0.579038 0.388792 0.013524
2.039586 0.412706 0.106171
2.024485 0.316321 0.073033
0.791734 0.814799 0.233089
2.013345 0.882962 0.090390
0.037296 0.188780 0.013481
2.015784 0.275097 0.093220
2.010821 0.308547 0.173000
2.033909 0.289244 0.112282
2.042875 0.331086 0.077792
2.039336 0.339690 0.068817
2.034917 0.195737 0.108191
2.013953 0.922460 0.103780
2.027577 0.749487 0.077519
2.000638 0.887062 0.082849
2.043238 0.860607 0.086299
1.560743 0.078128 0.037658
1.853658 0.934064 0.107320
1.871636 0.341460 0.199710
1.427909 0.104638 0.028355
2.036560 0.107947 0.066608
0.093519 0.964303 0.239516
2.018576 0.840891 0.076544
0.995262 0.845624 0.031322
1.566057 0.914528 0.211252
2.003428 0.277166 0.164066
2.040073 0.728954 0.132857
0.947272 0.429316 0.211275
0.880875 0.052891 0.034345
1.756928 0.727095 0.037392
2.038919 0.091718 0.151174
1.689068 0.148864 0.038177
2.010286 0.565693 0.109033
0.877605 0.466968 0.227376
1.047930 0.704427 0.180978
2.010992 0.147421 0.096275
1.913459 0.833297 0.208856
2.038118 0.748146 0.141266
1.676327 0.714796 0.215473
1.948832 0.250969 0.043860
2.038461 0.336184 0.102265
1.592675 0.963954 0.123815
0.928764 0.098096 0.027945
1.537522 0.951594 0.070523
2.036578 0.240857 0.056613
0.835808 0.478677 0.017394
1.601600 0.945639 0.080558
2.026656 0.128085 0.135971
2.011742 0.078111 0.152927
0.014526 0.508971 0.234429
1.876820 0.289770 0.042333
0.941029 0.213455 0.233052
2.020640 0.930446 0.117839
2.012230 0.680055 0.167305
1.953006 0.735235 0.044418
2.025570 0.769084 0.186028
1.631780 0.713996 0.035038
0.491735 0.982186 0.196712
0.039619 0.426158 0.016526
2.002534 0.716035 0.146029
0.029365 0.373274 0.239514
0.998935 0.042965 0.037209
2.028122 0.221336 0.119898
2.000288 0.313538 0.179206
0.012559 0.514437 0.241601
0.755355 0.415936 0.229772
0.672888 0.033350 0.043259
2.023364 0.091646 0.073414
0.007811 0.605221 -0.000325
2.022095 0.088833 0.073625
1.515514 0.753537 0.041235
1.571408 0.768478 0.032177
0.009837 0.279569 0.235842
2.048770 0.749451 0.090866
2.029164 0.787634 0.187305
1.205130 0.767094 0.037939
2.001214 0.102727 0.166548
0.871144 0.975471 0.067301
0.271052 0.134203 0.025760
2.016937 0.339622 0.074967
0.018953 0.890552 0.250145
2.000588 0.799573 0.125313
1.934328 0.587797 0.067892
1.639355 0.669781 0.202487
2.028930 0.271324 0.174884
1.645057 0.084042 0.043298
0.145737 0.982162 0.216960
2.026492 0.348990 0.140628
0.953812 0.932558 0.226652
2.033815 0.595950 0.076129
0.214226 0.010057 0.209166
2.031101 0.930411 0.137363
1.782367 0.875021 0.206056
1.533080 0.931766 0.043006
2.025588 0.792722 0.125310
2.036936 0.079405 0.138733
0.805212 0.961043 0.203452
2.006244 0.790524 0.087015
0.538213 0.026123 0.040457
0.566474 0.019547 0.163485
1.015657 0.347873 0.068574
0.018348 0.746783 0.010696
2.007610 0.172173 0.078813
1.656130 0.189168 0.214446
1.138369 0.495529 0.052856
0.254705 0.531658 0.229696
2.020352 0.301361 0.168629
1.393879 0.924651 0.036080
2.054257 0.245705 0.112442
1.049425 0.463631 0.107104
2.005327 0.901170 0.181384
1.473618 0.081600 0.216307
2.014286 0.350295 0.187820
1.795362 0.942642 0.139960
2.040402 0.096788 0.101012
2.001294 0.107314 0.184666
0.600631 0.034325 0.213276
2.038295 0.102904 0.177095
2.025195 0.408903 0.144709
0.998934 0.972344 0.086377
2.020001 0.799353 0.160508
2.012249 0.715509 0.135389
0.736645 0.984786 0.092817
0.034259 -0.000089 0.183998
1.836317 0.901881 0.056511
0.544309 0.482977 0.008233
2.047931 0.313367 0.104281
2.023425 0.371297 0.189176
2.033696 0.125638 0.135117
1.313817 0.820168 0.028071
1.526399 0.075116 0.211175
0.090815 0.984436 0.021088
2.001362 0.282336 0.081177
0.982695 0.292951 0.220507
2.016776 0.724579 0.168284
0.014494 0.013007 0.083409
2.007751 0.161367 0.097244
0.231454 0.957994 0.016544
1.864002 0.924773 0.078122
1.362657 0.056371 0.208168
1.777666 0.683112 0.206655
2.023007 0.116935 0.149028
2.001221 0.669073 0.192203
2.049318 0.245117 0.121517
1.351398 0.223784 0.211525
2.014259 0.206345 0.053412
1.468064 0.038315 0.175166
0.332182 0.989309 0.169792
2.017891 0.273142 0.089601
0.996131 0.051958 0.032928
2.001818 0.350240 0.144337
2.018226 0.826991 0.177203
1.169908 0.503357 0.192932
2.040798 0.271093 0.087862
2.039047 0.789668 0.048091
0.686577 0.090174 0.018991
1.007621 0.936934 0.220888
2.010548 0.695931 0.089083
1.806092 0.338121 0.198956
1.768592 0.600256 0.057477
2.024173 0.282589 0.075697
1.394141 0.831655 0.225841
2.025903 0.091580 0.162508
2.039833 0.740614 0.110457
2.045441 0.386358 0.068500
0.774569 0.030885 0.194607
2.035768 0.751377 0.149175
2.021132 0.167951 0.105210
1.975227 0.425480 0.134114
0.801369 0.555897 0.016559
1.813810 0.331240 0.199652
2.033975 0.332578 0.095046
2.024310 0.858399 0.143123
0.939667 0.284226 0.025046
2.036353 0.070023 0.119429
1.971506 0.825462 0.046248
2.033033 0.715423 0.127692
2.040083 0.091923 0.085418
1.725444 0.411761 0.109752
2.038732 0.267869 0.046259
2.022422 0.186151 0.198259
1.839305 0.104657 0.200425
2.015052 0.920555 0.112129
0.250908 0.617061 0.003306
0.096379 0.685498 0.247681
2.017961 0.096528 0.184175
1.536978 0.168158 0.030981
2.024277 0.380779 0.080066
0.333145 0.639232 0.011917
1.779426 0.733546 0.042806
1.447609 0.166481 0.220394
2.019767 0.325567 0.131726
2.010451 0.114133 0.153634
1.626310 0.294049 0.211106
0.510211 0.025099 0.040171
1.820132 0.870615 0.043975
2.008738 0.657800 0.178482
0.040125 0.572397 0.014626
0.941858 0.575721 0.218642
1.193346 0.023570 0.162791
1.116557 0.048271 0.214114
2.024197 0.296343 0.159639
1.089401 0.829178 0.020586
2.003979 0.189402 0.181230
0.047646 0.852974 -0.000133
1.337932 0.914539 0.222600
0.207054 0.952900 0.011746
0.133626 0.003956 0.208070
2.007821 0.839730 0.099613
1.773142 0.098045 0.198780
0.028147 0.374918 0.238771
1.413140 0.929224 0.035756
2.033046 0.667468 0.200239
1.224377 0.517485 0.126585
0.047141 0.939745 0.001904
1.896081 0.285874 0.206217
0.019862 0.386466 0.245121
2.042207 0.866436 0.076275
0.960743 0.964789 0.050717
2.005977 0.763890 0.090744
1.130258 0.498674 0.050470
0.923498 0.964801 0.051646
1.795566 0.396109 0.057411
1.785311 0.621499 0.204637
1.717888 0.939278 0.090688
1.624321 0.958914 0.109373
0.605943 0.976858 0.073186
0.553018 0.020057 0.057099
0.870626 0.027770 0.175410
2.019279 0.075744 0.157400
2.007864 0.166258 0.184835
1.838887 0.117242 0.200005
2.033492 0.829768 0.188287
2.009141 0.738372 0.125480
</DataArray>
</Points>
<PointData>
<DataArray NumberOfComponents='1' type='Int32' Name='ParticleType' format='ascii'>
1
1
1
1
1
1
1
1
1
1
1
1
1
1
1
1
1
1
1
1
1
1
1
1
1
1
1
1
1
1
1
1
1
1
1
1
1
1
1
1
1
1
1
1
1
1
1
1
1
1
1
1
1
1
1
1
1
1
1
1
1
1
1
1
1
1
1
1
1
1
1
1
1
1
1
1
1
1
1
1
1
1
1
1
1
1
1
1
1
1
1
1
1
1
1
1
1
1
1
1
1
1
1
1
1
1
1
1
1
1
1
1
1
1
1
1
1
1
1
1
1
1
1
1
1
1
1
1
1
1
1
1
1
1
1
1
1
1
1
1
1
1
1
1
1
1
1
1
1
1
1
1
1
1
1
1
1
1
1
1
1
1
1
1
1
1
1
1
1
1
1
1
1
1
1
1
1
1
1
1
1
1
1
1
1
1
1
1
1
1
1
1
1
1
1
1
1
1
1
1
1
1
1
1
1
1
1
1
1
1
1
1
1
1
1
1
1
1
1
1
1
1
1
1
1
1
1
1
1
1
1
1
1
1
1
1
1
1
1
1
1
1
1
1
1
1
1
1
1
1
1
1
1
1
1
1
1
1
1
1
1
1
1
1
1
1
1
1
1
1
1
1
1
1
1
1
1
1
1
1
1
1
1
1
1
1
1
1
1
1
1
1
1
1
1
1
1
1
1
1
1
1
1
1
1
1
1
1
1
1
1
1
1
1
1
1
1
1
1
1
1
1
1
1
1
1
1
1
1
1
1
1
1
1
1
1
1
1
1
1
1
1
1
1
1
1
1
1
1
1
1
1
1
1
1
1
1
1
1
1
1
1
1
1
1
1
1
1
1
1
1
1
1
1
1
1
1
1
1
1
1
1
1
1
1
1
1
1
1
1
1
1
1
1
1
1
1
1
1
1
1
1
1
1
1
1
1
1
1
1
1
1
1
1
1
1
1
1
1
1
1
1
1
1
1
1
1
1
1
1
1
1
1
1
1
1
1
1
1
1
1
1
1
1
1
1
1
1
1
1
1
1
1
1
1
1
1
1
1
1
1
1
1
1
1
1
1
1
1
1
1
1
1
1
1
1
1
1
1
1
1
1
1
1
1
1
1
1
1
1
1
1
1
1
1
1
1
1
1
1
</DataArray>
<DataArray NumberOfComponents='1' type='Int32' Name='ParticleID' format='ascii'>
0
1
2
3
4
5
6
7
8
9
10
11
12
13
14
15
16
17
18
19
20
21
22
23
24
25
26
27
28
29
30
31
32
33
34
35
36
37
38
39
40
41
42
43
44
45
46
47
48
49
50
51
52
53
54
55
56
57
58
59
60
61
62
63
64
65
66
67
68
69
70
71
72
73
74
75
76
77
78
79
80
81
82
83
84
85
86
87
88
89
90
91
92
93
94
95
96
97
98
99
100
101
102
103
104
105
106
107
108
109
110
111
112
113
114
115
116
117
118
119
120
121
122
123
124
125
126
127
128
129
130
131
132
133
134
135
136
137
138
139
140
141
142
143
144
145
146
147
148
149
150
151
152
153
154
155
156
157
158
159
160
161
162
163
164
165
166
167
168
169
170
171
172
173
174
175
176
177
178
179
180
181
182
183
184
185
186
187
188
189
190
191
192
193
194
195
196
197
198
199
200
201
202
203
204
205
206
207
208
209
210
211
212
213
214
215
216
217
218
219
220
221
222
223
224
225
226
227
228
229
230
231
232
233
234
235
236
237
238
239
240
241
242
243
244
245
246
247
248
249
250
251
252
253
254
255
256
257
258
259
260
261
262
263
264
265
266
267
268
269
270
271
272
273
274
275
276
277
278
279
280
281
282
283
284
285
286
287
288
289
290
291
292
293
294
295
296
297
298
299
300
301
302
303
304
305
306
307
308
309
310
311
312
313
314
315
316
317
318
319
320
321
322
323
324
325
326
327
328
329
330
331
332
333
334
335
336
337
338
339
340
341
342
343
344
345
346
347
348
349
350
351
352
353
354
355
356
357
358
359
360
361
362
363
364
365
366
367
368
369
370
371
372
373
374
375
376
377
378
379
380
381
382
383
384
385
386
387
388
389
390
391
392
393
394
395
396
397
398
399
400
401
402
403
404
405
406
407
408
409
410
411
412
413
414
415
416
417
418
419
420
421
422
423
424
425
426
427
428
429
430
431
432
433
434
435
436
437
438
439
440
441
442
443
444
445
446
447
448
449
450
451
452
453
454
455
456
457
458
459
460
461
462
463
464
465
466
467
468
469
470
471
472
473
474
475
476
477
478
479
480
481
482
483
484
485
486
487
488
489
490
491
492
493
494
495
496
497
498
499
</DataArray>
<DataArray NumberOfComponents='1' type='Int8' Name='IsActive' format='ascii'>
1
0
1
0
0
1
0
1
1
1
1
1
1
1
1
0
1
1
1
0
0
1
0
1
0
0
1
0
1
1
0
1
1
0
1
1
0
0
1
1
1
1
1
1
0
1
1
0
1
1
0
1
0
1
1
1
1
1
0
1
1
0
1
0
1
1
1
0
1
0
0
1
1
0
1
1
0
0
0
0
1
0
1
0
0
1
1
0
0
0
1
0
0
1
0
1
1
0
1
1
1
1
0
0
0
0
0
0
0
1
0
1
1
0
1
1
0
0
1
1
1
1
1
1
0
1
0
0
0
1
1
1
0
1
0
0
1
0
1
1
0
1
1
0
0
1
1
0
1
1
0
1
0
0
1
1
1
1
1
1
0
1
0
0
1
0
0
0
1
1
1
0
0
1
0
0
1
0
0
0
0
1
1
1
1
0
1
1
0
1
0
0
0
0
1
0
0
1
0
1
0
0
1
0
1
0
1
0
0
1
0
0
0
0
1
0
0
0
0
1
0
1
1
0
0
1
0
1
1
1
0
1
1
0
1
1
0
1
0
1
1
1
0
0
0
1
1
1
1
1
1
0
1
1
0
1
0
1
1
1
0
1
0
0
0
0
1
0
0
1
0
1
0
0
0
0
0
0
0
0
0
0
1
1
1
1
0
1
0
1
1
0
0
1
1
1
0
1
0
1
1
0
1
0
1
1
0
1
1
1
0
1
1
0
0
1
1
1
1
0
1
0
1
1
1
0
1
1
0
0
1
1
1
0
0
0
1
1
1
0
0
1
0
1
1
0
0
0
1
1
0
1
1
0
1
0
1
1
1
1
0
0
1
0
1
1
1
1
0
1
1
1
0
1
0
1
0
1
0
1
0
0
1
0
0
1
0
0
1
0
1
1
0
0
0
1
1
1
0
1
0
1
0
1
1
1
1
0
0
0
1
0
1
1
0
1
0
0
1
0
0
1
1
0
1
1
0
1
0
0
0
1
0
0
1
1
1
0
0
1
0
1
0
0
1
0
0
1
0
1
1
0
1
0
1
1
1
0
0
1
1
1
0
1
1
1
1
0
1
0
1
1
1
1
0
1
1
1
0
1
1
1
1
0
1
0
1
1
1
1
1
1
1
1
1
0
0
1
0
0
</DataArray>
<DataArray NumberOfComponents='1' type='Int32' Name='ParticleTetID' format='ascii'>
44882
-50400
17967
-69862
-102510
95701
-69112
26276
50744
33191
67459
57454
11594
66888
87323
-93293
7447
15677
10085
-98831
-12127
42915
-98411
5978
-93293
-102840
102422
-91191
100560
48447
-34180
33229
96718
-39168
99188
48167
-69112
-42296
19460
41229
73521
31180
51190
54854
-90119
59157
94294
-93119
49229
20599
-90337
80251
-25302
100560
89578
44006
46721
47541
-27681
100342
24898
-90337
26799
-57434
8404
60649
15526
-27681
15947
-104925
-80727
31094
92889
-96019
80251
52104
-75610
-98411
-34180
-57434
19817
-57434
20789
-42296
-102510
58859
3994
-50400
-98306
-69112
38517
-93293
-104802
77058
-83399
79062
99903
-90337
73978
42063
67751
63562
-96019
-58762
-86274
-93119
-58762
-98765
-86274
81958
-96731
51193
78816
-24526
77285
53712
-87306
-96325
49095
49605
100821
42276
23311
104764
-39168
93343
-98765
-39168
-17626
79907
45053
100092
-96325
89192
-58762
-64130
21940
-104802
4634
86706
-95998
-92602
35192
-12127
-70156
20335
90853
-70156
54718
18130
-44138
79030
-83215
-102510
58462
35722
60897
24927
99903
7546
-39168
5932
-96019
-17626
87636
-39168
-90337
-74393
67355
105750
97137
-87514
-102840
81936
-93819
-39168
99126
-96354
-39168
-102840
-91248
47870
104549
46058
74251
-89958
18817
97137
-96849
77110
-96019
-92373
-85990
-91248
70045
-69112
-83215
3311
-85990
73976
-102840
-83820
38526
-64130
43336
-83215
100903
-90337
-98831
104252
-34180
-104802
-98210
-27681
90359
-69112
-98308
-91248
-61396
99302
-70156
102368
94316
-74393
-102840
86921
-82524
98800
47354
22330
-70433
69970
83682
-99021
31450
10409
-83399
31087
-104802
87575
65089
25760
-58762
-98308
-102510
54390
65500
36737
71355
8926
59685
-34180
92094
68370
-27681
19587
-84540
99980
46333
77033
-104802
78663
-42296
-93119
-98210
-42296
89535
-90131
-83399
40511
-96019
85474
-94130
-91191
-25302
-83399
-58762
-99021
-79211
-98411
-48492
-96019
68836
9628
71940
40571
-100353
93306
-96019
2695
8115
-61396
-34180
52727
49891
57052
-98831
98172
-100422
46632
17359
-24687
49325
-102840
70714
41742
-83399
81745
58480
39464
-64130
29738
102671
-42296
-104925
100092
10884
34544
-27681
-57434
103069
-94146
9169
97495
74099
-34180
101063
99812
-83215
-91191
100092
100809
44600
-96731
-101355
-96731
22007
73073
98826
-98411
-94146
31693
-44138
54872
75369
-58762
-71594
-17626
11624
84318
-61396
72950
103165
-96849
55459
-25092
66943
-27681
10426
33074
-17626
-98831
3994
-83820
12438
105750
74881
100743
-56272
3021
31399
46750
-91191
15289
-83215
103598
-96325
72143
-98308
51976
-98306
-44138
51391
-44138
-19405
64204
-70156
-34180
61828
-101044
75272
64122
-94130
-98308
-42296
85634
16006
101074
-94130
56333
-93119
101509
-24687
82705
12537
58513
98528
-42296
-42146
-83215
90445
-70433
31450
57237
-94130
99491
-99096
-69862
8530
-94130
-99911
74697
97877
-91248
92239
29509
-92373
7487
-104925
-102840
-24526
105712
-102840
-24687
25249
98835
92239
-83399
-98210
11435
-98831
38809
-34180
-96731
86850
-92373
-99721
57820
-27681
57508
56084
-44138
58343
-24526
42730
49356
38639
-50400
-42296
70559
12438
96435
-42146
88021
17019
87220
87470
-95447
53580
-99721
-100561
35635
67232
87735
-96019
71027
101063
33772
-42146
11730
99121
50548
101063
-96019
34132
-98411
47389
30575
45015
79138
83967
19618
89793
102469
22183
-104925
-99721
91963
-90337
-102840
</DataArray>
<DataArray NumberOfComponents='3' type='Float32' Name='vels' format='ascii'>
14.407532 -0.713429 -0.024410
22.746117 0.571945 -0.290697
2.585615 0.009779 -0.001858
20.081773 -0.217840 -0.277921
23.484112 -0.510887 0.083072
1.321935 -0.006335 0.001800
20.333378 0.277334 -0.621174
14.400140 -1.221610 -0.047889
17.551024 -0.607562 -0.026714
15.700380 0.439913 0.019795
26.033119 0.984606 0.010542
1.375179 0.001590 -0.002536
8.669105 7.910153 0.160480
4.292320 -0.452083 -0.000379
20.762216 -4.512007 0.011555
20.644419 -0.244898 0.011251
15.534170 2.180873 -0.028579
14.652520 -0.686351 -0.020932
14.219709 3.464739 0.014525
19.044396 -1.244907 -0.238396
21.835456 0.067503 1.640637
9.280495 -0.012304 0.060883
20.051412 -0.328575 -0.076616
1.929798 -0.006770 -0.001176
18.297037 -0.214221 0.115799
22.591256 -0.226395 0.244628
2.896884 -0.233192 0.065761
21.418610 0.522880 0.667956
0.172551 0.040865 -0.020381
15.032792 1.040289 0.047233
22.058982 -0.221339 0.905368
2.672874 -0.141616 -0.000664
8.811909 0.308679 -0.000173
19.420937 -0.419907 0.689956
14.708683 -0.088108 -0.037794
13.067461 -2.235938 -0.014537
19.690416 0.183231 -1.354405
17.262796 -0.581290 -0.236368
8.274289 -4.716271 -0.004266
13.650382 0.693741 0.044266
21.198745 -1.332992 0.145979
3.662897 -0.222417 0.000443
2.506287 -0.039186 0.000212
8.762235 -0.152506 -0.038649
23.253517 -0.506630 -0.243077
2.762618 0.000332 0.000130
-0.047775 0.012472 -0.001881
21.234953 -0.478901 -0.021576
17.416099 -1.150532 0.021579
13.690476 -0.498053 -0.219309
15.641460 0.592641 2.478244
-0.034093 -0.027355 0.006701
23.583462 0.705706 0.031841
-0.040617 0.074492 -0.001448
1.988635 -0.804642 -0.000501
18.591964 8.489656 -0.018348
7.230974 0.798676 -0.008217
21.041695 -2.548563 -0.188398
16.294222 1.334800 -0.294998
19.722085 -0.697343 0.150009
23.063516 0.259440 -0.010812
15.971599 0.661878 2.362355
1.326390 -0.000252 -0.010369
16.469972 -0.440812 0.460427
13.425760 -1.314908 0.059541
0.828431 0.006754 -0.000476
18.626964 -1.119264 0.034249
16.358776 2.099030 -0.512324
19.748532 0.888225 0.000368
12.106804 0.099396 -0.173926
20.829917 -0.376475 0.351593
3.052536 -3.655683 -0.037028
17.876310 0.108586 -0.055956
21.624399 0.251894 -0.102345
-0.081767 0.005066 0.000525
13.999552 7.346285 -0.080610
18.270654 -0.489875 0.186874
16.029687 -0.488661 0.199500
22.453575 -0.519201 0.546982
20.858756 -0.561026 1.745228
2.753563 -0.037264 0.000312
22.318605 -0.637696 0.060034
13.962642 -0.789349 0.074789
17.872999 -0.508012 -0.210598
21.544261 -0.576351 -0.237666
3.682490 -0.245801 0.000053
6.820291 0.380321 0.032596
22.850020 0.504740 0.291769
16.743318 -0.167094 -0.066923
20.405083 0.175823 -1.416689
4.578148 3.555518 -0.007291
18.397170 2.312845 0.926571
22.928140 -0.721532 0.020940
14.068359 3.462857 0.019695
21.674624 0.629290 -1.020716
15.605394 0.021512 0.053060
0.210497 0.034773 0.015575
18.277976 1.459873 2.053854
14.548648 -0.916118 0.067469
17.212260 2.466541 -0.033811
1.384826 0.066624 -0.013879
4.064085 0.017426 0.029249
16.604183 0.954922 -1.554912
16.518350 0.455337 -2.328386
22.200797 0.725471 -0.532589
19.328759 -0.349707 0.354440
19.388330 0.531497 -1.176200
23.505890 -0.017541 0.011079
21.587448 0.974728 -0.641169
18.220884 0.872738 0.039188
16.482712 -1.531327 -0.673981
16.383153 1.064556 -0.078706
2.187552 0.008195 -0.003139
22.036278 0.624905 -0.469285
18.255229 -5.627607 -0.022293
12.836024 -1.130798 0.069698
21.786999 -0.601339 -0.143358
14.298232 0.925327 0.629781
0.265988 0.010505 0.002259
3.685233 0.173918 0.189865
0.098705 -0.000444 0.001615
23.311052 6.291999 0.019839
15.549456 -0.798585 -0.013091
0.118722 -0.000562 -0.002926
17.437643 -0.326126 1.677305
12.843723 0.795217 -0.001373
23.130137 -0.019389 0.136113
16.798710 -0.409249 0.846982
21.975496 -0.398811 0.347033
14.278183 1.616426 0.002844
21.593861 -0.504905 0.001255
-0.103919 0.028327 -0.005767
17.775444 0.811653 0.366037
15.076874 0.719764 -0.002051
16.323602 0.461840 -1.527500
20.101702 0.219511 -1.888051
13.483380 1.972058 -0.021973
23.078656 -0.988561 -0.027553
4.094371 0.019805 0.027584
3.776604 -0.232202 -0.000978
22.910553 -0.665074 -0.024346
15.478941 0.434950 -2.683764
7.581827 1.018692 -0.001625
23.086697 0.462772 0.127130
20.097993 -0.001831 0.998274
7.716843 0.234482 0.032803
4.326928 -0.022657 -0.006218
21.604291 0.016050 0.594368
14.409316 0.681765 0.209005
10.911839 1.738614 0.012603
16.746200 -1.534288 1.226030
17.438630 -2.676607 -0.010855
23.785807 0.531745 -0.031865
21.848852 0.420922 0.793156
13.430978 0.033631 0.058586
13.887283 0.574237 0.064610
2.816431 -0.023791 0.041957
19.530739 -1.375107 -0.062463
-0.040274 -0.003421 0.012820
9.293356 8.193533 0.093590
17.330247 -0.352344 1.789258
14.769945 0.026971 0.138177
19.581049 0.422816 -0.371368
23.074533 -0.332614 -0.039117
10.508534 0.080889 -0.041147
16.564731 -0.331065 1.203524
19.095386 0.410807 1.106184
21.597133 -0.714607 0.164443
21.686488 -0.201251 0.026018
0.259436 0.000027 0.002535
0.029125 -0.005557 0.000884
18.889380 -0.021748 0.028150
23.744358 -0.623742 0.078356
17.249194 -3.515009 0.008295
21.550093 0.597724 0.177560
19.931805 -0.620684 -0.104144
0.181297 0.000114 -0.000365
22.186483 -0.580909 0.085191
18.532700 -0.364004 0.898198
22.731125 -0.410106 -0.267865
16.903104 -0.287756 -3.000994
17.997611 -1.142602 0.069111
13.164399 4.001468 -0.007955
16.003584 -0.519637 -0.039076
9.910546 -0.087349 -0.113780
15.925088 1.660978 -1.064572
5.905767 -0.181750 0.001213
0.126590 -0.002705 -0.013670
22.474392 0.693944 0.051149
16.838625 1.808311 0.007011
16.990761 0.499263 -0.526326
17.556272 0.387056 -1.088772
22.424382 0.267650 -0.125181
19.438241 -0.645570 0.307630
1.021730 0.008336 -0.000132
19.790404 0.145941 -0.245545
23.805036 0.246133 -0.090822
13.896580 -0.630185 0.049114
17.974424 -0.188307 1.097113
4.263379 0.326775 -0.002056
22.916248 -0.253452 -0.514480
18.818351 0.349067 -1.391396
5.239927 0.174051 0.004425
15.899244 0.166904 -2.510908
4.276862 -0.116494 0.010859
23.480659 0.156312 -0.174877
-0.137107 0.029502 -0.003000
18.643998 0.568643 0.689326
18.384430 -0.878138 0.303210
3.017178 -0.024690 0.000208
23.583081 -0.560089 0.024302
23.161558 -0.767744 -0.045548
20.291565 1.561776 -0.694303
16.401910 -0.321120 -0.053734
18.499458 0.318126 0.110136
21.410000 0.626257 0.310330
18.442322 0.652253 -0.220620
17.690202 -0.279277 -2.290119
18.769647 0.377517 0.667154
0.100580 -0.001126 -0.000108
17.750980 -0.020871 0.508239
4.066510 0.842631 0.000010
14.277009 0.009626 0.127623
20.417662 -0.645471 0.231195
23.602854 -0.615112 0.038929
13.412350 -0.015292 -0.095236
18.576584 -0.501876 -0.358508
4.037820 0.195607 -0.005763
14.798264 -0.777115 -0.052798
10.251405 3.301878 -0.001806
6.917325 -0.024386 0.013341
0.082246 -0.033603 0.010162
4.495246 0.632698 -0.000396
21.328316 0.562810 0.238438
26.615665 0.962782 0.045295
2.979021 0.008201 -0.002441
22.195289 0.732663 -0.247530
17.541368 -8.299825 0.035624
22.344953 -0.609651 0.782143
9.406614 0.467767 0.042773
7.093680 -0.730080 0.011906
12.538771 -3.935325 0.020265
21.407858 0.824238 0.337188
17.297617 0.488402 2.433505
23.606339 -0.372745 -0.031862
6.376398 0.287225 -0.226828
12.612014 -2.351980 0.005816
4.244317 0.015040 0.039722
9.615763 -0.019292 -0.027661
10.030476 -2.354112 0.015349
13.946609 -1.025366 -0.102875
21.838368 -0.661170 -0.191753
5.070229 0.071372 -0.006360
16.410695 -0.488997 0.047915
15.580226 -0.323972 0.093963
9.155839 -7.417095 0.038937
21.053992 -0.422851 0.024730
0.046081 0.000871 0.046978
1.709015 0.026501 -0.003336
-0.124547 0.033790 -0.003572
23.244983 -0.730652 -0.131282
4.042211 0.008610 0.000656
20.722970 -0.207133 -0.102217
22.750940 -0.531753 0.033055
20.545453 -0.083357 -0.102342
20.285490 -0.903266 0.046184
4.661484 -0.205538 0.000284
21.801124 0.497681 -0.757091
19.879728 0.548398 -0.714806
6.526847 1.446682 0.006247
18.274489 0.518023 -0.272507
0.060947 0.003838 -0.008659
22.049778 0.519534 -0.195881
19.783170 0.573937 0.196976
23.087101 0.531150 0.110178
20.744513 0.554739 -1.416790
18.689961 0.464014 -2.153891
22.952633 -0.348073 -0.012363
15.385875 1.081334 -0.018862
20.312842 -0.228192 -0.737240
18.555870 0.457150 -0.153506
18.423548 1.307541 -2.021391
15.641164 1.508104 0.032932
14.962162 -0.643476 0.024282
11.660294 1.326104 -0.035568
13.189118 0.495437 -0.012536
15.862789 -1.859636 -1.900831
0.015437 0.000023 0.002285
20.159521 0.339274 -0.414015
20.098796 6.035868 -0.001225
17.141895 -1.958472 -0.001633
21.204620 0.562607 -0.004813
21.937366 -0.464106 0.805875
1.835622 -1.696941 0.062578
9.352461 -0.373051 -0.027232
11.754046 -2.985438 0.006316
17.251731 -2.118573 0.970715
14.723105 2.952423 0.000534
21.945310 -0.394043 -0.007759