<VTKFile type='UnstructuredGrid' version='1.0' byte_order='LittleEndian' header_type='UInt64'>
<UnstructuredGrid>
<Piece NumberOfCells='500' NumberOfPoints='500'>
<Points>
<DataArray NumberOfComponents='3' type='Float32' Name='Position' format='ascii'>
1.978085 0.650355 0.226199
2.041913 0.322548 0.117272
0.405698 0.979864 0.222341
2.032789 0.817449 0.183718
2.006422 0.772777 0.106364
0.285092 0.191456 0.246130
2.021840 0.236634 0.075397
2.017995 0.818960 0.207017
1.985304 0.655429 0.223794
1.867420 0.782338 0.226721
2.000547 0.222329 0.034662
0.410327 0.005716 0.058121
1.823794 0.593426 0.222090
1.195149 0.130476 0.237141
2.020090 0.731064 0.214867
2.029884 0.896507 0.149988
2.019396 0.268186 0.204956
2.024177 0.929727 0.162309
2.005561 0.815987 0.218321
2.028493 0.103892 0.112536
2.053310 0.240382 0.149626
0.557617 0.101623 0.228582
2.013011 0.752185 0.079681
0.533023 0.991956 0.150835
2.010016 0.889759 0.129730
2.047684 0.745451 0.119795
1.538901 0.495919 0.098883
2.034071 0.303870 0.160488
0.093252 0.853990 0.001231
1.551239 0.957901 0.222158
2.049422 0.718082 0.151819
0.846258 0.249795 0.242672
1.718589 0.971444 0.184417
2.022542 0.715620 0.181877
2.007435 0.963692 0.130137
2.010632 0.639137 0.200410
2.032977 0.238094 0.074622
2.000648 0.118576 0.122908
2.023587 0.621514 0.041745
2.021349 0.083507 0.064647
1.903897 0.072862 0.217004
1.120621 0.147121 0.239488
0.634024 0.277717 0.008468
1.034153 0.023966 0.029624
2.007880 0.710244 0.115067
0.511423 0.527952 0.009443
0.028788 0.129860 0.019431
2.001995 0.747523 0.166309
2.009973 0.935019 0.106858
2.032963 0.684623 0.203324
2.034140 0.855777 0.176953
0.022836 0.665557 0.224442
2.008327 0.295468 0.130869
0.114825 0.848794 0.003001
1.208726 0.251285 0.230646
2.014178 0.336587 0.209485
1.673112 0.887997 0.230421
2.021289 0.403139 0.038827
2.020040 0.916381 0.117455
2.011438 0.042650 0.166426
2.009763 0.231899 0.027127
2.033928 0.852710 0.179680
0.373132 0.992649 0.194631
2.009942 0.676050 0.191148
2.019976 0.708230 0.042371
0.280282 0.724188 0.002112
2.005428 0.343931 0.028379
2.031539 0.915199 0.125560
2.031289 0.095241 0.207983
2.018562 0.097872 0.154440
2.032726 0.151930 0.157049
1.651972 0.377049 0.024056
2.008613 0.966694 0.115869
2.012379 0.857800 0.088540
0.040076 0.652635 0.241836
1.872654 0.623509 0.029644
2.006516 0.709664 0.056035
2.006612 0.733044 0.069206
2.032027 0.708061 0.156368
2.047422 0.659033 0.158041
1.445393 0.112735 0.212867
2.008623 0.671327 0.150335
2.017950 0.932096 0.066731
2.000212 0.119345 0.120454
2.027649 0.788814 0.122788
1.005540 0.151100 0.241746
1.559278 0.980996 0.187248
2.037782 0.301018 0.135393
2.000514 0.077327 0.105807
2.037639 0.231862 0.074891
1.655195 0.678014 0.020565
2.043692 0.901627 0.126913
2.041219 0.688146 0.137356
2.000429 0.215780 0.041495
2.033186 0.327317 0.104475
0.192364 0.612383 0.250010
0.034528 0.562738 0.250112
2.044269 0.818918 0.199550
2.001223 0.848056 0.050231
2.017651 0.129320 0.202862
2.012521 0.233298 0.045845
0.511859 0.981405 0.173703
2.030091 0.839346 0.098504
2.033268 0.354557 0.077770
2.041484 0.819601 0.133527
2.016896 0.735843 0.177114
2.005133 0.350592 0.093012
2.030378 0.211665 0.125291
2.051344 0.818365 0.128576
2.023131 0.039322 0.115082
2.015030 0.096685 0.090606
2.042048 0.398850 0.188016
0.597946 0.913383 0.240934
2.022922 0.372593 0.103430
2.023228 0.730447 0.214347
2.016049 0.756633 0.040487
2.020701 0.649097 0.095229
2.010562 0.904400 0.171377
0.079112 0.992222 0.222559
1.521342 0.497527 0.079222
0.131274 0.044568 0.005733
2.005788 0.276226 0.213360
2.032231 0.932595 0.160442
2.006229 0.058657 0.123712
2.029796 0.721484 0.189331
1.998133 0.897206 0.026428
2.022575 0.188149 0.135854
2.017201 0.681083 0.191017
2.023163 0.803616 0.100864
2.016357 0.106732 0.037931
1.999421 0.149888 0.222650
0.454817 0.504439 0.217389
2.015481 0.887887 0.167531
2.012309 0.059204 0.149143
2.024290 0.352007 0.073397
2.044852 0.258797 0.047845
2.004841 0.367351 0.200467
2.018896 0.681016 0.127061
0.951469 0.991396 0.100770
0.961205 0.453610 0.233611
2.018782 0.639498 0.119193
2.033252 0.732225 0.044826
2.006809 0.305431 0.041686
2.020581 0.271387 0.143559
2.029636 0.772421 0.161292
1.351879 0.984614 0.192378
1.131157 0.005637 0.100214
2.030579 0.775512 0.178289
2.041007 0.276005 0.046258
2.000271 0.289912 0.039032
2.030297 0.105648 0.171593
2.008805 0.883220 0.211431
2.007401 0.237211 0.132114
2.043957 0.792899 0.145899
2.005593 0.960484 0.087862
1.919395 0.959495 0.171857
1.715594 0.032154 0.161971
2.029679 0.371865 0.030569
0.031401 0.565873 0.250052
1.759142 0.611608 0.225522
2.031014 0.717976 0.184907
2.008829 0.958193 0.179470
2.015580 0.844944 0.092940
2.035106 0.799893 0.114166
1.991752 0.129486 0.223375
2.022126 0.726487 0.178634
2.027879 0.840318 0.184213
2.017479 0.630500 0.093234
2.004728 0.045776 0.165312
1.083693 0.019400 0.170187
0.037940 0.987384 0.129473
2.017105 0.149523 0.065801
2.002765 0.755692 0.135449
2.009781 0.723187 0.218147
2.024452 0.367358 0.155246
2.029788 0.686933 0.179488
0.072892 0.987845 0.008410
2.043170 0.614473 0.123196
2.022747 0.721939 0.186483
2.054804 0.758295 0.109029
2.041637 0.681193 0.088195
2.000301 0.875927 0.042103
2.000926 0.300494 0.207650
2.002114 0.947795 0.174869
0.513392 0.024327 0.079983
2.026112 0.916278 0.087320
2.030630 0.922772 0.068881
0.037957 0.988563 0.137729
2.043955 0.337547 0.127159
1.341296 0.887077 0.238794
2.014167 0.830135 0.092786
2.021179 0.297030 0.060840
2.006074 0.222603 0.150129
2.012553 0.718654 0.076826
0.238390 0.880225 0.245953
2.014067 0.221852 0.075742
2.022074 0.220839 0.125137
1.985851 0.045624 0.156342
2.024098 0.190148 0.166427
2.000155 0.115994 0.036692
2.031926 0.750208 0.100893
2.032816 0.780082 0.070591
1.197162 0.941943 0.017847
2.036882 0.229357 0.050515
1.374616 0.015703 0.191136
2.032852 0.230892 0.118425
0.490278 0.160708 0.227099
2.019598 0.843053 0.176573
2.016902 0.101517 0.145640
0.865228 0.451091 0.242398
2.045287 0.712677 0.129932
2.035427 0.694947 0.126864
2.048916 0.864810 0.125488
2.001647 0.913888 0.124021
2.014059 0.089480 0.039694
2.035264 0.224157 0.103852
2.025508 0.345656 0.154944
2.035546 0.726023 0.059531
2.008734 0.276993 0.174787
0.208981 0.027281 0.025359
2.014314 0.785718 0.158959
2.022817 0.412694 0.057546
2.015897 0.124400 0.020784
2.027677 0.625261 0.106097
2.002812 0.754347 0.144586
2.000397 0.043009 0.128105
2.012800 0.666294 0.074063
0.973923 0.675213 0.012497
1.505600 0.011340 0.095459
2.001944 0.360681 0.203661
2.009621 0.190728 0.054982
0.040004 0.702513 0.240545
1.259011 0.796524 0.013467
2.037639 0.183166 0.137945
2.002865 0.054265 0.168639
0.745618 0.974564 0.215400
2.030415 0.333994 0.097299
2.005081 0.638313 0.035432
2.021489 0.647323 0.134533
1.755626 0.940785 0.206480
1.640221 0.085122 0.019954
2.012652 0.670691 0.207114
2.017824 0.348008 0.065318
2.038313 0.328636 0.190803
2.017192 0.772864 0.111412
1.453966 0.505889 0.053641
2.022265 0.669826 0.040038
0.897426 0.987942 0.160883
2.002798 0.106988 0.215250
1.910541 0.191953 0.025325
2.022459 0.678012 0.204441
2.005690 0.712882 0.141472
1.414626 0.992599 0.144746
2.000333 0.953181 0.117134
2.019636 0.910267 0.135929
1.757562 0.365099 0.228940
2.006319 0.572720 0.097924
0.034988 0.996210 0.050228
0.454335 0.798873 0.006005
0.977667 0.762210 0.212861
2.007652 0.682386 0.138880
0.707060 0.637559 0.238192
2.005989 0.126293 0.114610
2.008474 0.747795 0.153841
2.001298 0.857592 0.150809
2.025124 0.119820 0.148109
0.983334 0.239199 0.012809
2.039586 0.412706 0.106171
2.024485 0.316321 0.073033
1.614018 0.849925 0.233991
2.013345 0.882962 0.090390
0.037744 0.188201 0.012758
2.015784 0.275097 0.093220
2.010821 0.308547 0.173000
2.033909 0.289244 0.112282
2.042875 0.331086 0.077792
2.039336 0.339690 0.068817
2.034917 0.195737 0.108191
2.013953 0.922460 0.103780
2.027577 0.749487 0.077519
2.000638 0.887062 0.082849
2.043238 0.860607 0.086299
2.022557 0.107515 0.035134
2.012521 0.933139 0.107317
2.021264 0.348509 0.201991
2.015875 0.174592 0.025673
2.036560 0.107947 0.066608
0.197933 0.964330 0.239873
2.018576 0.840891 0.076544
2.005662 0.767514 0.027929
2.025381 0.883073 0.216368
2.003428 0.277166 0.164066
2.040073 0.728954 0.132857
1.589591 0.355635 0.219634
1.837517 0.069687 0.035791
2.013732 0.699957 0.037390
2.038919 0.091718 0.151174
2.007386 0.174686 0.037130
2.010286 0.565693 0.109033
1.027575 0.292744 0.231655
2.008896 0.535737 0.180788
2.010992 0.147421 0.096275
2.023444 0.832276 0.209149
2.038118 0.748146 0.141266
2.007447 0.660923 0.215475
2.007343 0.252245 0.045028
2.038461 0.336184 0.102265
2.032140 0.948573 0.123652
1.996211 0.128242 0.029786
2.013046 0.936125 0.068833
2.036578 0.240857 0.056613
0.971140 0.397316 0.015304
2.019009 0.931509 0.079621
2.026656 0.128085 0.135971
2.011742 0.078111 0.152927
0.328534 0.510906 0.233551
2.005825 0.296214 0.042500
1.741922 0.264499 0.233897
2.020640 0.930446 0.117839
2.012230 0.680055 0.167305
2.024435 0.735181 0.039485
2.025570 0.769084 0.186028
2.012501 0.643426 0.035387
0.827520 0.990238 0.198890
0.040053 0.426238 0.016341
2.002534 0.716035 0.146029
0.155746 0.374821 0.242127
1.900174 0.058601 0.039013
2.028122 0.221336 0.119898
2.000288 0.313538 0.179206
0.012545 0.514241 0.240488
1.294725 0.216248 0.231012
1.267159 0.019123 0.040904
2.023364 0.091646 0.073414
0.007811 0.605221 -0.000325
2.022095 0.088833 0.073625
2.023175 0.607116 0.038665
2.028521 0.663280 0.028983
0.010684 0.278559 0.234397
2.048770 0.749451 0.090866
2.029164 0.787634 0.187305
2.009423 0.578671 0.035858
2.001214 0.102727 0.166548
1.687784 0.972395 0.067231
0.914795 0.095326 0.026405
2.016937 0.339622 0.074967
0.018953 0.890552 0.250145
2.000588 0.799573 0.125313
2.018788 0.585346 0.066433
2.010143 0.602290 0.201903
2.028930 0.271324 0.174884
2.010875 0.104483 0.044686
0.350644 0.982041 0.217104
2.026492 0.348990 0.140628
1.892885 0.908813 0.225554
2.033815 0.595950 0.076129
0.295693 0.010035 0.209642
2.031101 0.930411 0.137363
2.004660 0.865858 0.205160
2.002627 0.901958 0.043426
2.025588 0.792722 0.125310
2.036936 0.079405 0.138733
1.688431 0.964315 0.203273
2.006244 0.790524 0.087015
0.924471 0.017426 0.039018
0.764269 0.017940 0.164617
1.790754 0.456944 0.065212
0.015624 0.747940 0.011531
2.007610 0.172173 0.078813
2.007702 0.234239 0.216311
1.463279 0.500024 0.056792
0.821000 0.550390 0.229782
2.020352 0.301361 0.168629
2.011723 0.880291 0.032407
2.054257 0.245705 0.112442
1.211830 0.457824 0.109119
2.005327 0.901170 0.181384
2.004935 0.129279 0.216811
2.014286 0.350295 0.187820
2.016464 0.939830 0.139259
2.040402 0.096788 0.101012
2.001294 0.107314 0.184666
1.087950 0.021666 0.213437
2.038295 0.102904 0.177095
2.025195 0.408903 0.144709
1.909484 0.961543 0.089180
2.020001 0.799353 0.160508
2.012249 0.715509 0.135389
1.127627 0.996770 0.088507
0.034259 -0.000089 0.183998
2.032238 0.901429 0.052711
0.808287 0.475582 0.008742
2.047931 0.313367 0.104281
2.023425 0.371297 0.189176
2.033696 0.125638 0.135117
1.999593 0.672904 0.028995
2.009439 0.111121 0.210674
0.163746 0.984814 0.021582
2.001362 0.282336 0.081177
1.935375 0.386280 0.219489
2.016776 0.724579 0.168284
0.011962 0.012149 0.085641
2.007751 0.161367 0.097244
0.441765 0.958741 0.016166
2.021828 0.925834 0.076102
2.033920 0.088868 0.213205
2.012108 0.659642 0.207532
2.023007 0.116935 0.149028
2.001221 0.669073 0.192203
2.049318 0.245117 0.121517
2.007857 0.404492 0.211926
2.014259 0.206345 0.053412
2.029388 0.052975 0.176435
0.525020 0.988763 0.169351
2.017891 0.273142 0.089601
1.915481 0.076575 0.032179
2.001818 0.350240 0.144337
2.018226 0.826991 0.177203
1.481033 0.506326 0.186937
2.040798 0.271093 0.087862
2.039047 0.789668 0.048091
1.348487 0.057791 0.019442
1.941445 0.907180 0.217862
2.010548 0.695931 0.089083
2.015575 0.353923 0.199898
2.014640 0.582777 0.057398
2.024173 0.282589 0.075697
2.017580 0.697172 0.227207
2.025903 0.091580 0.162508
2.039833 0.740614 0.110457
2.045441 0.386358 0.068500
1.508153 0.019651 0.193601
2.035768 0.751377 0.149175
2.021132 0.167951 0.105210
2.030107 0.426089 0.134212
1.035738 0.740277 0.015476
2.017631 0.345764 0.201357
2.033975 0.332578 0.095046
2.024310 0.858399 0.143123
1.930458 0.361827 0.026435
2.036353 0.070023 0.119429
2.006043 0.826376 0.044697
2.033033 0.715423 0.127692
2.040083 0.091923 0.085418
2.023243 0.436303 0.110260
2.038732 0.267869 0.046259
2.022422 0.186151 0.198259
2.029531 0.103716 0.205389
2.015052 0.920555 0.112129
0.390284 0.618450 0.003768
0.250308 0.684734 0.247693
2.017961 0.096528 0.184175
2.003892 0.262647 0.030832
2.024277 0.380779 0.080066
0.710737 0.661683 0.012116
2.000152 0.715168 0.043558
2.015801 0.293648 0.220570
2.019767 0.325567 0.131726
2.010451 0.114133 0.153634
2.014853 0.372002 0.213192
0.827813 0.019508 0.039539
2.018938 0.868010 0.039757
2.008738 0.657800 0.178482
0.040491 0.572588 0.015009
1.577290 0.653931 0.223072
2.000237 0.042496 0.160838
1.945225 0.071260 0.213078
2.024197 0.296343 0.159639
1.996153 0.705494 0.021582
2.003979 0.189402 0.181230
0.047646 0.852974 -0.000133
1.999500 0.859156 0.220582
0.427844 0.953416 0.010977
0.150949 0.002621 0.208413
2.007821 0.839730 0.099613
2.028238 0.101937 0.203735
0.028791 0.374258 0.239578
2.006695 0.889089 0.035418
2.033046 0.667468 0.200239
1.524705 0.510507 0.126528
0.086138 0.940831 0.002533
2.017117 0.290534 0.208101
0.017842 0.389365 0.246595
2.042207 0.866436 0.076275
1.916383 0.948717 0.053615
2.005977 0.763890 0.090744
1.456894 0.502907 0.056093
1.871052 0.952683 0.053582
2.019777 0.409893 0.057595
2.007231 0.605300 0.202884
2.003610 0.932416 0.091151
2.013677 0.949706 0.108499
1.249187 0.989130 0.070833
0.969370 0.010562 0.054623
1.684974 0.025838 0.176060
2.019279 0.075744 0.157400
2.007864 0.166258 0.184835
2.007855 0.119610 0.200900
2.033492 0.829768 0.188287
2.009141 0.738372 0.125480
</DataArray>
</Points>
<PointData>
<DataArray NumberOfComponents='1' type='Int32' Name='ParticleType' format='ascii'>
1
1
1
1
1
1
1
1
1
1
1
1
1
1
1
1
1
1
1
1
1
1
1
1
1
1
1
1
1
1
1
1
1
1
1
1
1
1
1
1
1
1
1
1
1
1
1
1
1
1
1
1
1
1
1
1
1
1
1
1
1
1
1
1
1
1
1
1
1
1
1
1
1
1
1
1
1
1
1
1
1
1
1
1
1
1
1
1
1
1
1
1
1
1
1
1
1
1
1
1
1
1
1
1
1
1
1
1
1
1
1
1
1
1
1
1
1
1
1
1
1
1
1
1
1
1
1
1
1
1
1
1
1
1
1
1
1
1
1
1
1
1
1
1
1
1
1
1
1
1
1
1
1
1
1
1
1
1
1
1
1
1
1
1
1
1
1
1
1
1
1
1
1
1
1
1
1
1
1
1
1
1
1
1
1
1
1
1
1
1
1
1
1
1
1
1
1
1
1
1
1
1
1
1
1
1
1
1
1
1
1
1
1
1
1
1
1
1
1
1
1
1
1
1
1
1
1
1
1
1
1
1
1
1
1
1
1
1
1
1
1
1
1
1
1
1
1
1
1
1
1
1
1
1
1
1
1
1
1
1
1
1
1
1
1
1
1
1
1
1
1
1
1
1
1
1
1
1
1
1
1
1
1
1
1
1
1
1
1
1
1
1
1
1
1
1
1
1
1
1
1
1
1
1
1
1
1
1
1
1
1
1
1
1
1
1
1
1
1
1
1
1
1
1
1
1
1
1
1
1
1
1
1
1
1
1
1
1
1
1
1
1
1
1
1
1
1
1
1
1
1
1
1
1
1
1
1
1
1
1
1
1
1
1
1
1
1
1
1
1
1
1
1
1
1
1
1
1
1
1
1
1
1
1
1
1
1
1
1
1
1
1
1
1
1
1
1
1
1
1
1
1
1
1
1
1
1
1
1
1
1
1
1
1
1
1
1
1
1
1
1
1
1
1
1
1
1
1
1
1
1
1
1
1
1
1
1
1
1
1
1
1
1
1
1
1
1
1
1
1
1
1
1
1
1
1
1
1
1
1
1
1
1
1
1
1
1
1
1
1
1
1
1
1
1
1
1
1
1
1
1
1
1
1
1
1
1
1
1
1
1
1
1
1
1
1
1
1
1
1
</DataArray>
<DataArray NumberOfComponents='1' type='Int32' Name='ParticleID' format='ascii'>
0
1
2
3
4
5
6
7
8
9
10
11
12
13
14
15
16
17
18
19
20
21
22
23
24
25
26
27
28
29
30
31
32
33
34
35
36
37
38
39
40
41
42
43
44
45
46
47
48
49
50
51
52
53
54
55
56
57
58
59
60
61
62
63
64
65
66
67
68
69
70
71
72
73
74
75
76
77
78
79
80
81
82
83
84
85
86
87
88
89
90
91
92
93
94
95
96
97
98
99
100
101
102
103
104
105
106
107
108
109
110
111
112
113
114
115
116
117
118
119
120
121
122
123
124
125
126
127
128
129
130
131
132
133
134
135
136
137
138
139
140
141
142
143
144
145
146
147
148
149
150
151
152
153
154
155
156
157
158
159
160
161
162
163
164
165
166
167
168
169
170
171
172
173
174
175
176
177
178
179
180
181
182
183
184
185
186
187
188
189
190
191
192
193
194
195
196
197
198
199
200
201
202
203
204
205
206
207
208
209
210
211
212
213
214
215
216
217
218
219
220
221
222
223
224
225
226
227
228
229
230
231
232
233
234
235
236
237
238
239
240
241
242
243
244
245
246
247
248
249
250
251
252
253
254
255
256
257
258
259
260
261
262
263
264
265
266
267
268
269
270
271
272
273
274
275
276
277
278
279
280
281
282
283
284
285
286
287
288
289
290
291
292
293
294
295
296
297
298
299
300
301
302
303
304
305
306
307
308
309
310
311
312
313
314
315
316
317
318
319
320
321
322
323
324
325
326
327
328
329
330
331
332
333
334
335
336
337
338
339
340
341
342
343
344
345
346
347
348
349
350
351
352
353
354
355
356
357
358
359
360
361
362
363
364
365
366
367
368
369
370
371
372
373
374
375
376
377
378
379
380
381
382
383
384
385
386
387
388
389
390
391
392
393
394
395
396
397
398
399
400
401
402
403
404
405
406
407
408
409
410
411
412
413
414
415
416
417
418
419
420
421
422
423
424
425
426
427
428
429
430
431
432
433
434
435
436
437
438
439
440
441
442
443
444
445
446
447
448
449
450
451
452
453
454
455
456
457
458
459
460
461
462
463
464
465
466
467
468
469
470
471
472
473
474
475
476
477
478
479
480
481
482
483
484
485
486
487
488
489
490
491
492
493
494
495
496
497
498
499
</DataArray>
<DataArray NumberOfComponents='1' type='Int8' Name='IsActive' format='ascii'>
1
0
1
0
0
1
0
0
1
1
0
1
1
1
0
0
0
0
0
0
0
1
0
1
0
0
1
0
1
1
0
1
1
0
0
0
0
0
0
0
1
1
1
1
0
1
1
0
0
0
0
1
0
1
1
0
1
0
0
0
0
0
1
0
0
1
0
0
0
0
0
1
0
0
1
1
0
0
0
0
1
0
0
0
0
1
1
0
0
0
1
0
0
0
0
0
0
0
0
0
0
1
0
0
0
0
0
0
0
0
0
0
1
0
0
0
0
0
1
1
1
0
0
0
0
1
0
0
0
0
1
1
0
0
0
0
0
0
1
1
0
0
0
0
0
1
1
0
0
0
0
0
0
0
0
1
1
0
0
1
0
0
0
0
1
0
0
0
0
1
1
0
0
0
0
0
1
0
0
0
0
0
0
0
1
0
0
1
0
1
0
0
0
0
1
0
0
1
0
0
0
0
1
0
1
0
1
0
0
1
0
0
0
0
0
0
0
0
0
1
0
0
0
0
0
0
0
1
1
0
0
1
1
0
0
1
0
0
0
1
1
0
0
0
0
1
0
1
0
1
0
0
1
0
0
1
0
1
1
1
0
1
0
0
0
0
1
0
0
1
0
1
0
0
0
0
0
0
0
0
0
0
0
0
0
0
0
1
0
0
0
0
0
1
1
0
0
0
0
1
1
0
0
0
0
0
0
0
1
0
0
1
0
0
0
1
0
1
0
0
0
0
0
1
1
0
1
1
0
0
1
1
1
0
0
0
0
0
1
0
0
0
0
1
1
0
0
0
0
0
0
0
1
0
1
0
1
0
0
0
0
0
1
0
1
1
1
1
0
0
1
1
0
0
0
1
0
0
0
0
0
0
1
0
0
1
0
0
1
0
0
1
0
0
0
1
0
1
0
1
0
1
0
1
0
0
0
0
0
0
0
0
0
1
0
1
0
0
1
0
0
1
1
0
0
0
0
0
0
0
0
1
0
0
0
1
0
0
0
1
0
0
0
0
0
0
0
0
0
1
1
0
0
0
1
0
0
0
0
0
1
0
0
1
1
0
1
0
1
0
0
1
1
1
0
0
1
0
0
1
1
0
1
0
1
0
1
1
0
0
0
0
1
1
1
0
0
0
0
0
</DataArray>
<DataArray NumberOfComponents='1' type='Int32' Name='ParticleTetID' format='ascii'>
90938
-50400
72807
-69862
-102510
40446
-69112
-82730
90938
4437
-90622
71977
6671
28236
-82225
-93293
-91090
-74058
-82730
-98831
-12127
104155
-98411
20144
-93293
-102840
102570
-91191
76283
433
-34180
104664
89909
-39168
-100141
-81615
-69112
-42296
-100758
-96731
39169
74215
47738
96320
-90119
45764
94294
-93119
-79211
-82225
-90337
80251
-25302
84296
1602
-96944
52547
-81404
-27681
-88996
-90622
-90337
77068
-57434
-90680
78694
-90160
-27681
-44138
-104925
-80727
96137
-90339
-96019
80251
49035
-75610
-98411
-34180
-57434
27218
-57434
-89958
-42296
-102510
105210
46058
-50400
-98306
-69112
64982
-93293
-104802
-99907
-83399
-79063
-99904
-90337
-79597
-82515
-90622
84429
-96019
-58762
-86274
-93119
-58762
-98765
-86274
-97395
-96731
-44272
17752
-24526
-82225
-92602
-87306
-96325
99871
51973
82439
-91090
-74058
-98831
-39168
105530
-98765
-39168
-17626
-96893
99790
29392
-96325
-104925
-58762
-64130
-96944
-104802
71409
106092
-95998
-92602
-88016
-12127
-70156
98877
99666
-70156
-92373
-88016
-44138
-105710
-83215
-102510
-90339
89781
34707
-90160
-99904
96966
-39168
-98723
-96019
-17626
85664
-39168
-90337
-74393
-88996
100342
97137
-87514
-102840
-82225
-93819
-39168
99809
-96354
-39168
-102840
-91248
-105531
-91090
-74058
102466
-89958
-89958
97137
-96849
67211
-96019
-92373
-85990
-91248
100001
-69112
-83215
64071
-85990
-96893
-102840
-83820
86335
-64130
87667
-83215
23948
-90337
-98831
74615
-34180
-104802
-98210
-27681
-96893
-69112
-98308
-91248
-61396
26634
-70156
-46315
-96893
-74393
-102840
-100053
-82524
103689
92605
-96944
-70433
69970
54969
-99021
-104925
19116
-83399
-90231
-104802
95051
72950
-81615
-58762
-98308
-102510
27277
-90231
96718
-82515
73394
-82225
-34180
100926
-90339
-27681
76573
-84540
99980
76091
18782
-104802
83550
-42296
-93119
-98210
-42296
96335
-90131
-83399
93718
-96019
85474
-94130
-91191
-25302
-83399
-58762
-99021
-79211
-98411
-48492
-96019
-96893
-79211
-96944
-70433
-100353
91569
-96019
-92602
-105710
-61396
-34180
32325
70740
-90680
-98831
-70433
-100422
55987
-55969
-24687
-82730
-102840
-81615
-90622
-83399
-27681
96892
-89958
-64130
18263
-89958
-42296
-104925
67995
-88016
104550
-27681
-57434
-92602
-94146
-90231
54097
74099
-34180
100256
16617
-83215
-91191
100092
44298
30418
-96731
-101355
-96731
-104379
-90231
98826
-98411
-94146
-104379
-44138
74527
57301
-58762
-71594
-17626
-25092
-78226
-61396
-96893
49067
-96849
27911
-25092
81063
-27681
-99052
-105531
-17626
-98831
95360
-83820
38221
60897
88312
100743
-56272
-82325
9260
14710
-91191
-105531
-83215
17071
-96325
-82515
-98308
-43214
-98306
-44138
88270
-44138
-19405
38116
-70156
-34180
50608
-101044
-48492
83749
-94130
-98308
-42296
101125
-82515
105060
-94130
47030
-93119
101509
-24687
31485
-89958
-44138
-81615
-42296
-42146
-83215
-89384
-70433
-104925
48924
-94130
61701
-99096
-69862
49756
-94130
-99911
65036
72171
-91248
-96944
-25092
-92373
-82225
-104925
-102840
-24526
44903
-102840
-24687
-19405
80995
-96944
-83399
-98210
54059
-98831
-79597
-34180
-96731
-69914
-92373
-99721
-44138
-27681
49106
56224
-44138
-101289
-24526
87151
-90680
-91090
-50400
-42296
-96944
70459
-105531
-42146
88021
34718
-88996
85796
-95447
90679
-99721
-100561
100874
35593
100376
-96019
-44138
101063
-105531
-42146
74691
97647
-91090
101063
-96019
44958
-98411
49252
43532
-46315
-78226
-79211
-79211
100942
74536
8429
-104925
-99721
-44138
-90337
-102840
</DataArray>
<DataArray NumberOfComponents='3' type='Float32' Name='vels' format='ascii'>
0.365127 0.025378 -0.024743
22.746117 0.571945 -0.290697
0.863550 0.004251 -0.004403
20.081773 -0.217840 -0.277921
23.484112 -0.510887 0.083072
1.330765 -0.016252 0.000020
20.333378 0.277334 -0.621174
12.783111 0.221707 0.073535
0.288226 0.020991 -0.021171
12.880249 -1.201502 -0.011569
0.217718 0.013813 0.058638
1.195769 0.002111 -0.011196
12.414008 -1.541411 -0.043786
9.793861 -0.001660 0.004375
13.642843 -0.263199 -0.225210
20.644419 -0.244898 0.011251
14.087736 0.281257 1.252631
14.293141 1.904616 0.878634
2.882659 0.105804 0.055236
19.044396 -1.244907 -0.238396
21.835456 0.067503 1.640637
0.133779 -0.005017 -0.000068
20.051412 -0.328575 -0.076616
2.200161 0.007501 0.004672
18.297037 -0.214221 0.115799
22.591256 -0.226395 0.244628
4.460512 0.186582 0.037994
21.418610 0.522880 0.667956
0.375458 0.000917 -0.000028
8.599039 -0.369767 0.078746
22.058982 -0.221339 0.905368
2.805538 -1.217919 -0.002939
7.523761 -0.186544 -0.062171
19.420937 -0.419907 0.689956
9.525294 1.051627 0.162017
9.873437 -0.276749 0.223623
19.690416 0.183231 -1.354405
17.262796 -0.581290 -0.236368
13.020581 -0.450925 -1.719911
13.718675 -1.653544 -1.157650
7.262464 0.216039 -0.038206
7.391020 -0.559375 0.012285
2.931278 -0.297353 -0.000487
8.708418 -0.203084 -0.039400
23.253517 -0.506630 -0.243077
3.294415 0.037409 -0.000477
0.167458 0.028326 -0.005885
21.234953 -0.478901 -0.021576
16.783738 0.725048 0.022270
15.336051 -0.375124 2.450828
15.641460 0.592641 2.478244
-0.004283 -0.025340 0.008093
23.583462 0.705706 0.031841
1.071892 0.002478 -0.004660
8.924198 1.921934 -0.103106
12.898903 0.342379 1.238865
7.756532 -1.082948 -0.010453
13.280735 0.278610 0.164190
16.294222 1.334800 -0.294998
10.266128 -1.216054 0.712383
5.808161 -0.012437 -0.307565
15.971599 0.661878 2.362355
1.725237 0.001845 0.013896
16.469972 -0.440812 0.460427
8.803361 -0.053175 -1.230980
0.865229 0.010939 0.000124
10.740587 0.297700 -1.133387
16.358776 2.099030 -0.512324
13.698757 -1.440865 2.243215
12.106804 0.099396 -0.173926
20.829917 -0.376475 0.351593
5.365988 3.153296 0.010285
3.920957 0.036668 -0.138405
21.624399 0.251894 -0.102345
-0.033006 0.004144 0.001586
9.629989 -0.867016 0.034798
18.270654 -0.489875 0.186874
16.029687 -0.488661 0.199500
22.453575 -0.519201 0.546982
20.858756 -0.561026 1.745228
23.153582 1.228059 -0.031285
22.318605 -0.637696 0.060034
12.451290 1.606906 -1.239628
17.872999 -0.508012 -0.210598
21.544261 -0.576351 -0.237666
5.484295 -1.224780 0.000533
8.327684 -0.155858 -0.017174
22.850020 0.504740 0.291769
16.743318 -0.167094 -0.066923
20.405083 0.175823 -1.416689
6.045573 -3.124938 0.005716
18.397170 2.312845 0.926571
22.928140 -0.721532 0.020940
1.092060 -0.057378 -0.099089
21.674624 0.629290 -1.020716
0.117633 0.000420 0.000014
-0.227464 0.036754 0.002049
18.277976 1.459873 2.053854
15.193783 -0.200755 0.411678
8.382616 -1.056661 1.118900
9.911597 0.030293 -0.531683
4.102492 0.010843 0.057446
16.604183 0.954922 -1.554912
16.518350 0.455337 -2.328386
22.200797 0.725471 -0.532589
19.328759 -0.349707 0.354440
19.388330 0.531497 -1.176200
23.505890 -0.017541 0.011079
21.587448 0.974728 -0.641169
9.527705 -1.530749 -0.112747
16.482712 -1.531327 -0.673981
20.251569 0.364379 1.295825
2.512539 0.078559 0.002204
22.036278 0.624905 -0.469285
14.124127 -0.284270 -0.217126
10.498283 -0.075992 -0.761585
21.786999 -0.601339 -0.143358
14.298232 0.925327 0.629781
0.708993 0.001598 0.003760
3.173910 0.068350 0.178123
0.251171 -0.004981 0.001816
6.375299 0.134909 0.583683
14.099799 2.576252 1.169191
13.357897 -0.648771 -0.039844
17.437643 -0.326126 1.677305
12.301245 1.022308 -1.385034
23.130137 -0.019389 0.136113
16.798710 -0.409249 0.846982
21.975496 -0.398811 0.347033
11.426230 -1.001875 -1.211797
-0.029283 -0.052806 0.002604
18.893196 -0.074562 0.000789
17.775444 0.811653 0.366037
14.614608 -2.401172 0.802102
16.323602 0.461840 -1.527500
20.101702 0.219511 -1.888051
10.340887 0.260235 0.538024
23.078656 -0.988561 -0.027553
3.980610 0.042898 -0.042008
0.996180 -0.654580 0.028790
22.910553 -0.665074 -0.024346
15.478941 0.434950 -2.683764
3.843808 0.025786 -0.011749
23.086697 0.462772 0.127130
20.097993 -0.001831 0.998274
8.122188 0.012235 0.115008
24.478613 -0.662020 -0.087258
21.604291 0.016050 0.594368
20.440455 0.307652 -1.507826
3.309534 0.025848 -0.069147
16.746200 -1.534288 1.226030
10.253146 0.947459 1.119102
23.785807 0.531745 -0.031865
21.848852 0.420922 0.793156
8.106412 0.756462 -0.424418
4.170459 -0.054480 -0.048660
9.385996 0.342772 -0.001692
12.836041 0.386901 -2.273542
-0.209238 0.019446 0.003920
7.279323 -1.595899 -0.003170
17.330247 -0.352344 1.789258
6.224068 1.093664 0.955926
19.581049 0.422816 -0.371368
23.074533 -0.332614 -0.039117
0.109286 0.024324 -0.010034
16.564731 -0.331065 1.203524
19.095386 0.410807 1.106184
21.597133 -0.714607 0.164443
3.339751 0.116415 -0.031917
11.959497 -0.247388 0.114332
0.061395 -0.005720 -0.000974
18.889380 -0.021748 0.028150
23.744358 -0.623742 0.078356
6.083785 -0.114745 0.693848
21.550093 0.597724 0.177560
19.931805 -0.620684 -0.104144
0.019040 0.001612 -0.000028
22.186483 -0.580909 0.085191
18.532700 -0.364004 0.898198
22.731125 -0.410106 -0.267865
16.903104 -0.287756 -3.000994
2.618152 0.214458 0.047809
14.810948 0.363075 0.196271
10.891050 0.859468 0.466115
5.813106 -0.033958 -0.005406
15.925088 1.660978 -1.064572
13.425174 2.439846 -1.661108
-0.028841 -0.000494 -0.002881
22.474392 0.693944 0.051149
8.227432 -0.030957 0.000446
16.990761 0.499263 -0.526326
17.556272 0.387056 -1.088772
22.424382 0.267650 -0.125181
19.438241 -0.645570 0.307630
1.201939 0.015180 0.000210
19.790404 0.145941 -0.245545
23.805036 0.246133 -0.090822
10.831164 0.125723 -0.086472
17.974424 -0.188307 1.097113
11.220117 -0.667190 -0.338685
22.916248 -0.253452 -0.514480
18.818351 0.349067 -1.391396
9.593464 -0.120575 -0.035113
15.899244 0.166904 -2.510908
8.940812 0.062296 -0.075312
23.480659 0.156312 -0.174877
7.041416 -0.190645 0.004877
18.643998 0.568643 0.689326
18.384430 -0.878138 0.303210
6.023057 -1.404302 0.000352
23.583081 -0.560089 0.024302
23.161558 -0.767744 -0.045548
20.291565 1.561776 -0.694303
16.401910 -0.321120 -0.053734
10.492033 -1.280470 -1.330174
21.410000 0.626257 0.310330
18.442322 0.652253 -0.220620
17.690202 -0.279277 -2.290119
18.769647 0.377517 0.667154
3.081317 -0.024556 -0.005613
17.750980 -0.020871 0.508239
17.540848 0.458101 -1.060460
8.106153 -1.043966 -1.428472
20.417662 -0.645471 0.231195
23.602854 -0.615112 0.038929
12.160696 -1.012091 0.189499
18.576584 -0.501876 -0.358508
2.397171 3.449318 -0.040168
4.152174 0.054836 -0.010973
13.702585 0.396953 0.289287
6.917325 -0.024386 0.013341
-0.025730 -0.032500 0.008562
8.776965 -0.140078 0.011566
21.328316 0.562810 0.238438
12.057405 0.044548 -0.097366
1.671197 0.002972 0.008827
22.195289 0.732663 -0.247530
2.252395 -0.033993 0.023985
22.344953 -0.609651 0.782143
9.539936 -0.454875 0.026037
6.297186 0.359877 0.041667
15.872573 -0.624415 -0.376809
21.407858 0.824238 0.337188
17.297617 0.488402 2.433505
23.606339 -0.372745 -0.031862
3.536577 0.166144 0.341941
13.166489 -0.210343 -1.750043
5.056349 0.088964 0.028966
9.399261 -0.801023 0.807560
8.419910 0.478153 0.039070
14.328609 -0.354769 1.438157
21.838368 -0.661170 -0.191753
5.020083 -0.025700 -0.002885
1.967034 -0.040918 -0.033000
15.580226 -0.323972 0.093963
6.023454 1.664347 -0.001785
21.053992 -0.422851 0.024730
0.026362 0.002336 0.043308
2.081729 0.046923 -0.000261
14.069225 8.226491 0.041497
23.244983 -0.730652 -0.131282
3.834326 0.655357 0.000695
20.722970 -0.207133 -0.102217
22.750940 -0.531753 0.033055
20.545453 -0.083357 -0.102342
20.285490 -0.903266 0.046184
6.196377 -3.895596 -0.014806
21.801124 0.497681 -0.757091
19.879728 0.548398 -0.714806
8.230175 -1.929612 -0.003187
18.274489 0.518023 -0.272507
0.086641 0.005575 -0.009614
22.049778 0.519534 -0.195881
19.783170 0.573937 0.196976
23.087101 0.531150 0.110178
20.744513 0.554739 -1.416790
18.689961 0.464014 -2.153891
22.952633 -0.348073 -0.012363
15.385875 1.081334 -0.018862
20.312842 -0.228192 -0.737240
18.555870 0.457150 -0.153506
18.423548 1.307541 -2.021391
10.524621 -1.063843 -1.645949
16.597472 0.870109 0.031602
13.153952 0.251382 1.635128
15.026963 -0.710945 -2.419758
15.862789 -1.859636 -1.900831
0.299446 0.032083 0.006897
20.159521 0.339274 -0.414015
7.726323 0.053641 -0.995650
12.441263 0.840484 0.891875
21.204620 0.562607 -0.004813
21.937366 -0.464106 0.805875
6.015958 5.195476 -0.026769