<VTKFile type='UnstructuredGrid' version='1.0' byte_order='LittleEndian' header_type='UInt64'>
<UnstructuredGrid>
<Piece NumberOfCells='500' NumberOfPoints='500'>
<Points>
<DataArray NumberOfComponents='3' type='Float32' Name='Position' format='ascii'>
0.014318 0.613278 0.232096
0.006744 0.396238 0.114918
0.016578 0.981827 0.223657
0.007508 0.771903 0.188951
0.014696 0.740122 0.105957
0.016655 0.189828 0.248668
0.005366 0.297843 0.069363
0.009121 0.797598 0.211142
0.017803 0.614650 0.231371
0.007280 0.769815 0.231101
0.002354 0.246770 0.034465
0.000898 0.000457 0.053275
0.003829 0.541075 0.223504
0.005236 0.253609 0.238840
0.008718 0.691373 0.217490
0.014559 0.889324 0.152057
0.019306 0.324817 0.201377
0.006179 0.933971 0.161972
0.016121 0.794622 0.219243
0.007984 0.110389 0.115511
0.012318 0.280126 0.152091
0.008802 0.095840 0.236661
0.003988 0.693422 0.081292
0.008055 0.995857 0.153369
0.014596 0.881491 0.130623
0.004052 0.693808 0.118238
0.003104 0.500388 0.100107
0.006204 0.365065 0.163044
0.011270 0.847456 0.002498
0.018764 0.937530 0.218108
0.016295 0.664902 0.154106
0.011561 0.309256 0.248424
0.009977 0.963618 0.187865
0.004179 0.633857 0.185575
0.004516 0.960584 0.127174
0.017128 0.588321 0.203045
0.003086 0.292141 0.072286
0.003302 0.135398 0.124672
0.008647 0.568431 0.048765
0.017512 0.092275 0.067031
0.008657 0.089781 0.215618
0.017145 0.290903 0.238845
0.005570 0.292224 0.005016
0.009756 0.038922 0.031826
0.015798 0.640642 0.114945
0.006685 0.525341 0.003545
0.000578 0.118856 0.017903
0.014730 0.694320 0.164587
0.016065 0.932685 0.106389
0.017400 0.639239 0.196642
0.011313 0.851808 0.174371
0.012192 0.670514 0.220734
0.016371 0.370829 0.132454
0.000914 0.849671 0.001059
0.010888 0.478211 0.228842
0.002225 0.392524 0.211130
0.004423 0.859972 0.232165
0.011002 0.458820 0.038574
0.012452 0.910040 0.120909
0.003771 0.044582 0.165767
0.017498 0.252455 0.027448
0.008886 0.833774 0.176776
0.019308 0.995199 0.195209
0.018200 0.606341 0.190843
0.009160 0.649922 0.043393
0.010720 0.725794 0.001970
0.003649 0.389813 0.029399
0.019820 0.897868 0.128685
0.017240 0.106466 0.202723
0.003744 0.109211 0.157901
0.003526 0.179974 0.163362
0.011649 0.466912 0.023231
0.001093 0.966140 0.110886
0.011561 0.842521 0.089405
0.013662 0.653581 0.247179
0.006397 0.578122 0.030922
0.017277 0.664775 0.057922
0.003672 0.687757 0.063103
0.010154 0.627620 0.158465
0.006500 0.573056 0.154254
0.009233 0.206304 0.215833
0.010400 0.595516 0.152463
0.017388 0.910519 0.068965
0.017949 0.136799 0.119763
0.015872 0.752824 0.122828
0.002793 0.254019 0.241172
0.003084 0.967582 0.190413
0.000401 0.399113 0.136194
0.000507 0.082958 0.102797
0.015891 0.275556 0.075360
0.002653 0.586094 0.015667
0.004732 0.890569 0.122363
0.014555 0.623716 0.138781
0.002107 0.246935 0.038075
0.002434 0.414275 0.106173
0.013515 0.613564 0.248823
0.010061 0.553853 0.249223
0.018413 0.776474 0.191080
0.000619 0.838313 0.044281
0.005083 0.146945 0.200115
0.010436 0.251534 0.043630
0.005130 0.985489 0.181566
0.017833 0.794678 0.100985
0.008264 0.422602 0.078751
0.010191 0.783183 0.135252
0.015353 0.694363 0.176270
0.013875 0.434516 0.093049
0.009240 0.262242 0.124677
0.004367 0.780086 0.130264
0.005805 0.053049 0.116633
0.015011 0.128759 0.093627
0.015794 0.467019 0.181380
0.002438 0.913018 0.241839
0.006442 0.448924 0.100616
0.006544 0.693270 0.218753
0.003690 0.704165 0.039316
0.006284 0.572974 0.094354
0.015111 0.876993 0.173334
0.012063 0.993374 0.225068
0.013391 0.498682 0.078306
0.001463 0.036872 0.005565
0.009681 0.320943 0.220960
0.017263 0.931192 0.155569
0.011534 0.072776 0.124461
0.006608 0.654027 0.191613
0.013274 0.903779 0.026665
0.006499 0.214573 0.137336
0.003171 0.625821 0.195252
0.007867 0.756377 0.097252
0.017285 0.121152 0.038763
0.012289 0.166764 0.232601
0.015628 0.502155 0.224315
0.018886 0.864325 0.167928
0.019546 0.069051 0.152329
0.013445 0.433809 0.074990
0.009688 0.314437 0.049789
0.000955 0.436726 0.203200
0.002232 0.614739 0.127289
0.007749 0.986700 0.098972
0.013489 0.491754 0.234658
0.017532 0.566312 0.123288
0.001183 0.694731 0.047465
0.019743 0.356745 0.038613
0.011933 0.337864 0.142644
0.013654 0.722690 0.161614
0.002201 0.971449 0.195348
0.008466 0.015909 0.100122
0.007703 0.726802 0.183346
0.004981 0.316578 0.042969
0.009322 0.333011 0.035945
0.002625 0.122123 0.178681
0.007095 0.870456 0.208021
0.008570 0.302346 0.134339
0.009172 0.746804 0.142489
0.013529 0.960301 0.087456
0.014138 0.960069 0.174642
0.003843 0.033707 0.163166
0.019226 0.434927 0.035922
0.016617 0.567564 0.247304
0.016446 0.561124 0.227752
0.013174 0.651584 0.183584
0.002923 0.953128 0.178412
0.005017 0.823506 0.087693
0.011214 0.773973 0.115712
0.004044 0.138201 0.227707
0.005805 0.646592 0.181991
0.006569 0.820571 0.187073
0.003996 0.553188 0.094910
0.006675 0.043288 0.167191
0.000717 0.030694 0.171717
0.009056 0.989552 0.127078
0.008105 0.163376 0.061708
0.008364 0.708671 0.132405
0.011581 0.688129 0.219524
0.003057 0.448041 0.160465
0.015113 0.615904 0.181429
0.005053 0.989280 0.002368
0.001940 0.540561 0.122737
0.011491 0.669526 0.188691
0.011544 0.700002 0.110788
0.001241 0.595968 0.093609
0.014105 0.861704 0.040952
0.007722 0.350413 0.209904
0.017477 0.941881 0.170899
0.017943 0.014939 0.076775
0.003831 0.904180 0.085509
0.016985 0.914768 0.072420
0.010391 0.992274 0.140076
0.006596 0.413101 0.125874
0.013228 0.784478 0.238007
0.011131 0.796622 0.091465
0.011015 0.372296 0.058630
0.005620 0.264439 0.154690
0.004905 0.656223 0.072276
0.009258 0.885757 0.247318
0.004239 0.275078 0.069131
0.006692 0.293594 0.123870
0.005659 0.043791 0.157820
0.017765 0.222810 0.166297
0.012272 0.129391 0.035081
0.006054 0.701116 0.097604
0.003038 0.740585 0.067857
0.014351 0.902320 0.019610
0.010675 0.263506 0.051178
0.011315 0.031090 0.192327
0.017552 0.282187 0.118684
0.007875 0.155096 0.235817
0.019101 0.824507 0.174606
0.016386 0.110833 0.144797
0.005036 0.475130 0.242887
0.006504 0.630649 0.132353
0.000272 0.624598 0.127850
0.015086 0.847448 0.128007
0.011506 0.909556 0.123264
0.017993 0.091490 0.040141
0.008681 0.274638 0.099918
0.011175 0.427366 0.159846
0.008800 0.668597 0.058423
0.012586 0.327325 0.176851
0.004021 0.022628 0.021125
0.010694 0.740133 0.157622
0.008045 0.465227 0.059509
0.012848 0.146535 0.022584
0.013310 0.546661 0.106205
0.010825 0.696914 0.146805
0.005423 0.051133 0.127420
0.012398 0.589335 0.064727
0.003768 0.535865 0.011848
0.005123 0.019813 0.096572
0.018139 0.432019 0.204450
0.018885 0.215830 0.056755
0.007430 0.711341 0.243255
0.015578 0.597590 0.012447
0.007813 0.226909 0.137584
0.000284 0.057549 0.175419
0.001824 0.971168 0.218414
0.010477 0.417203 0.097142
0.012384 0.595384 0.031560
0.010070 0.552294 0.133948
0.004097 0.933326 0.207401
0.017137 0.111175 0.021388
0.007821 0.621893 0.212699
0.014054 0.421440 0.063317
0.005828 0.397577 0.190341
0.007340 0.721105 0.111814
0.016214 0.507316 0.061380
0.015900 0.629347 0.043438
0.012455 0.983700 0.161397
0.005806 0.114953 0.218377
0.003732 0.206732 0.021041
0.009166 0.618890 0.197306
0.015747 0.648967 0.144853
0.018783 0.973917 0.140698
0.000191 0.954040 0.111573
0.011668 0.905105 0.135664
0.016755 0.413289 0.234363
0.006788 0.521973 0.098225
0.001274 0.997195 0.036818
0.007760 0.795000 0.006016
0.005819 0.620234 0.217996
0.017064 0.578136 0.140627
0.001325 0.623900 0.243056
0.008211 0.137536 0.113803
0.000957 0.672822 0.158867
0.002871 0.836833 0.154885
0.004295 0.132487 0.150849
0.006508 0.395165 0.006825
0.009476 0.478144 0.108231
0.003206 0.383885 0.068394
0.007235 0.780175 0.233385
0.001628 0.873577 0.085593
0.010101 0.188774 0.013252
0.018971 0.343133 0.091691
0.015960 0.394789 0.175240
0.008191 0.374160 0.109807
0.013102 0.407956 0.079863
0.009260 0.415821 0.070707
0.004480 0.251369 0.105919
0.013207 0.905823 0.104289
0.004699 0.684619 0.075554
0.017943 0.870282 0.080256
0.012296 0.856782 0.089695
0.008173 0.116291 0.039827
0.018165 0.929886 0.104320
0.011927 0.414735 0.197874
0.006897 0.195649 0.029035
0.011075 0.116986 0.066398
0.019671 0.965713 0.239818
0.018187 0.825104 0.074477
0.000875 0.744550 0.028718
0.019236 0.866611 0.211609
0.007905 0.337295 0.168306
0.015348 0.666076 0.130823
0.002047 0.481965 0.210151
0.003211 0.057044 0.027753
0.018822 0.639626 0.041265
0.019099 0.097933 0.147909
0.017288 0.198111 0.038208
0.017586 0.519678 0.112896
0.014171 0.486439 0.227186
0.006990 0.511830 0.172531
0.016002 0.162310 0.093317
0.019495 0.812293 0.207526
0.011737 0.676888 0.141371
0.014093 0.626198 0.217526
0.013106 0.290763 0.041544
0.001020 0.421154 0.098936
0.014270 0.952161 0.124262
0.019380 0.143063 0.028898
0.016853 0.928397 0.069103
0.006674 0.277640 0.057060
0.008589 0.490602 0.013663
0.000457 0.933630 0.078053
0.006201 0.149905 0.134218
0.019701 0.087060 0.152414
0.003497 0.506207 0.235912
0.015897 0.342305 0.042024
0.002935 0.316619 0.240740
0.017624 0.917575 0.117613
0.011952 0.600288 0.170965
0.007959 0.683553 0.038979
0.019056 0.725280 0.183725
0.012418 0.608404 0.037886
0.011194 0.981505 0.196326
0.017889 0.426735 0.015972
0.013168 0.656862 0.150237
0.012496 0.373787 0.240874
0.019231 0.058059 0.035591
0.005967 0.267549 0.118097
0.005133 0.385167 0.183135
0.006756 0.516445 0.243559
0.010699 0.434282 0.228048
0.003859 0.036682 0.044149
0.013735 0.118256 0.074127
0.010513 0.606595 0.000269
0.009776 0.105883 0.073692
0.016907 0.554142 0.045078
0.003552 0.617281 0.029740
0.002308 0.280638 0.236361
0.002134 0.697485 0.099411
0.016266 0.737467 0.189851
0.009912 0.533565 0.037852
0.017381 0.107061 0.174251
0.002054 0.963009 0.066484
0.016383 0.130814 0.026043
0.010449 0.409882 0.075036
0.004614 0.891987 0.248827
0.003764 0.741824 0.127447
0.005111 0.524991 0.066821
0.005535 0.548700 0.205744
0.008616 0.318442 0.175176
0.011701 0.109972 0.043529
0.007426 0.983089 0.219908
0.003678 0.442301 0.141628
0.014732 0.902937 0.224804
0.011787 0.533261 0.080943
0.019555 0.009598 0.207745
0.015228 0.921382 0.136450
0.006576 0.845433 0.207709
0.003902 0.896349 0.042497
0.018102 0.743410 0.124194
0.016444 0.106058 0.138346
0.012811 0.957358 0.201662
0.018204 0.734383 0.084421
0.006818 0.022770 0.036695
0.011962 0.016252 0.164981
0.005825 0.483143 0.080051
0.016793 0.746941 0.011621
0.018478 0.195360 0.080315
0.016785 0.272373 0.214584
0.014413 0.504034 0.064958
0.013612 0.538428 0.226963
0.018388 0.371654 0.167908
0.013404 0.863067 0.034614
0.003201 0.308637 0.110076
0.013190 0.491939 0.111662
0.002858 0.885625 0.187047
0.008196 0.138314 0.218640
0.004723 0.414604 0.190307
0.019021 0.938092 0.143292
0.006142 0.101575 0.101827
0.003178 0.119803 0.190363
0.017762 0.035265 0.211118
0.019170 0.127211 0.175330
0.004301 0.476556 0.144872
0.012594 0.958627 0.087439
0.017154 0.762843 0.158498
0.016701 0.632969 0.137931
0.019539 0.977171 0.093615
0.004708 0.000350 0.187357
0.010246 0.885066 0.055872
0.004888 0.485472 0.005205
0.019311 0.387102 0.103663
0.019879 0.430688 0.189160
0.010433 0.149631 0.132156
0.007726 0.634724 0.025498
0.012905 0.116725 0.210141
0.005257 0.986632 0.015982
0.017591 0.369676 0.080577
0.008407 0.449052 0.223269
0.010833 0.661471 0.170765
0.013486 0.015109 0.078926
0.007816 0.175645 0.095951
0.004595 0.964863 0.013701
0.014265 0.915719 0.075386
0.012201 0.102606 0.206447
0.007921 0.593421 0.209935
0.016447 0.133867 0.149712
0.005039 0.585190 0.195237
0.002521 0.318354 0.120278
0.004627 0.458089 0.211246
0.008524 0.232301 0.047703
0.009638 0.057998 0.175956
0.012101 0.994943 0.174116
0.004454 0.330385 0.083969
0.019863 0.071685 0.030908
0.001320 0.430745 0.145293
0.003708 0.793388 0.181400
0.012830 0.504820 0.181301
0.002420 0.331893 0.083959
0.003923 0.748026 0.049699
0.014323 0.094262 0.014166
0.017058 0.903871 0.217508
0.015247 0.622546 0.090029
0.006877 0.441753 0.201844
0.008183 0.531292 0.058307
0.010517 0.336731 0.070140
0.015720 0.650555 0.224288
0.003776 0.093372 0.160975
0.001338 0.685445 0.109817
0.010237 0.462881 0.069326
0.001303 0.031531 0.197497
0.011714 0.685378 0.152526
0.006257 0.205087 0.098771
0.018958 0.481892 0.133750
0.000630 0.537498 0.012237
0.001618 0.398354 0.196750
0.004861 0.410307 0.092693
0.012899 0.838265 0.141835
0.000184 0.404981 0.014746
0.017701 0.085834 0.119911
0.008977 0.802377 0.042786
0.007086 0.652729 0.128539
0.018224 0.126245 0.091276
0.007680 0.480849 0.112380
0.013715 0.315138 0.047417
0.008040 0.235246 0.200028
0.016527 0.127882 0.201373
0.015328 0.905236 0.110247
0.001858 0.621397 0.004164
0.001243 0.689469 0.246969
0.002180 0.107480 0.186193
0.008736 0.285980 0.030266
0.015333 0.460210 0.078482
0.003563 0.640012 0.007056
0.009328 0.642679 0.043243
0.015367 0.332248 0.222430
0.004111 0.398659 0.134434
0.009467 0.134496 0.153849
0.001405 0.421945 0.214634
0.009311 0.020058 0.036889
0.011559 0.857390 0.044271
0.006283 0.590283 0.181241
0.017117 0.570708 0.014653
0.003367 0.519351 0.226198
0.012990 0.042399 0.162880
0.010550 0.080179 0.215016
0.004223 0.357585 0.163897
0.008195 0.677809 0.019540
0.014879 0.234167 0.185092
0.010270 0.848372 0.000930
0.015276 0.846412 0.221081
0.018076 0.958771 0.012308
0.017323 0.003786 0.208389
0.016642 0.806703 0.095846
0.010712 0.117888 0.200028
0.007929 0.373125 0.240318
0.004139 0.874583 0.032550
0.013847 0.602998 0.194605
0.008884 0.508007 0.127553
0.017021 0.946451 0.001538
0.019143 0.334147 0.203220
0.012470 0.387261 0.244894
0.012093 0.852203 0.073581
0.009884 0.950756 0.050538
0.005274 0.714608 0.085565
0.012472 0.504482 0.063200
0.012949 0.951440 0.051777
0.006158 0.466428 0.059885
0.019859 0.560648 0.198077
0.010948 0.928850 0.087668
0.010916 0.948262 0.107582
0.017484 0.979004 0.068999
0.009192 0.018348 0.054883
0.018593 0.038224 0.174777
0.002115 0.081258 0.158380
0.003529 0.195760 0.189404
0.019143 0.134593 0.200157
0.007020 0.789267 0.189266
0.008537 0.670548 0.124322
</DataArray>
</Points>
<PointData>
<DataArray NumberOfComponents='1' type='Int32' Name='ParticleType' format='ascii'>
1
1
1
1
1
1
1
1
1
1
1
1
1
1
1
1
1
1
1
1
1
1
1
1
1
1
1
1
1
1
1
1
1
1
1
1
1
1
1
1
1
1
1
1
1
1
1
1
1
1
1
1
1
1
1
1
1
1
1
1
1
1
1
1
1
1
1
1
1
1
1
1
1
1
1
1
1
1
1
1
1
1
1
1
1
1
1
1
1
1
1
1
1
1
1
1
1
1
1
1
1
1
1
1
1
1
1
1
1
1
1
1
1
1
1
1
1
1
1
1
1
1
1
1
1
1
1
1
1
1
1
1
1
1
1
1
1
1
1
1
1
1
1
1
1
1
1
1
1
1
1
1
1
1
1
1
1
1
1
1
1
1
1
1
1
1
1
1
1
1
1
1
1
1
1
1
1
1
1
1
1
1
1
1
1
1
1
1
1
1
1
1
1
1
1
1
1
1
1
1
1
1
1
1
1
1
1
1
1
1
1
1
1
1
1
1
1
1
1
1
1
1
1
1
1
1
1
1
1
1
1
1
1
1
1
1
1
1
1
1
1
1
1
1
1
1
1
1
1
1
1
1
1
1
1
1
1
1
1
1
1
1
1
1
1
1
1
1
1
1
1
1
1
1
1
1
1
1
1
1
1
1
1
1
1
1
1
1
1
1
1
1
1
1
1
1
1
1
1
1
1
1
1
1
1
1
1
1
1
1
1
1
1
1
1
1
1
1
1
1
1
1
1
1
1
1
1
1
1
1
1
1
1
1
1
1
1
1
1
1
1
1
1
1
1
1
1
1
1
1
1
1
1
1
1
1
1
1
1
1
1
1
1
1
1
1
1
1
1
1
1
1
1
1
1
1
1
1
1
1
1
1
1
1
1
1
1
1
1
1
1
1
1
1
1
1
1
1
1
1
1
1
1
1
1
1
1
1
1
1
1
1
1
1
1
1
1
1
1
1
1
1
1
1
1
1
1
1
1
1
1
1
1
1
1
1
1
1
1
1
1
1
1
1
1
1
1
1
1
1
1
1
1
1
1
1
1
1
1
1
1
1
1
1
1
1
1
1
1
1
1
1
1
1
1
1
1
1
1
1
1
1
1
1
1
1
1
1
1
1
1
1
1
1
1
1
1
1
1
1
</DataArray>
<DataArray NumberOfComponents='1' type='Int32' Name='ParticleID' format='ascii'>
0
1
2
3
4
5
6
7
8
9
10
11
12
13
14
15
16
17
18
19
20
21
22
23
24
25
26
27
28
29
30
31
32
33
34
35
36
37
38
39
40
41
42
43
44
45
46
47
48
49
50
51
52
53
54
55
56
57
58
59
60
61
62
63
64
65
66
67
68
69
70
71
72
73
74
75
76
77
78
79
80
81
82
83
84
85
86
87
88
89
90
91
92
93
94
95
96
97
98
99
100
101
102
103
104
105
106
107
108
109
110
111
112
113
114
115
116
117
118
119
120
121
122
123
124
125
126
127
128
129
130
131
132
133
134
135
136
137
138
139
140
141
142
143
144
145
146
147
148
149
150
151
152
153
154
155
156
157
158
159
160
161
162
163
164
165
166
167
168
169
170
171
172
173
174
175
176
177
178
179
180
181
182
183
184
185
186
187
188
189
190
191
192
193
194
195
196
197
198
199
200
201
202
203
204
205
206
207
208
209
210
211
212
213
214
215
216
217
218
219
220
221
222
223
224
225
226
227
228
229
230
231
232
233
234
235
236
237
238
239
240
241
242
243
244
245
246
247
248
249
250
251
252
253
254
255
256
257
258
259
260
261
262
263
264
265
266
267
268
269
270
271
272
273
274
275
276
277
278
279
280
281
282
283
284
285
286
287
288
289
290
291
292
293
294
295
296
297
298
299
300
301
302
303
304
305
306
307
308
309
310
311
312
313
314
315
316
317
318
319
320
321
322
323
324
325
326
327
328
329
330
331
332
333
334
335
336
337
338
339
340
341
342
343
344
345
346
347
348
349
350
351
352
353
354
355
356
357
358
359
360
361
362
363
364
365
366
367
368
369
370
371
372
373
374
375
376
377
378
379
380
381
382
383
384
385
386
387
388
389
390
391
392
393
394
395
396
397
398
399
400
401
402
403
404
405
406
407
408
409
410
411
412
413
414
415
416
417
418
419
420
421
422
423
424
425
426
427
428
429
430
431
432
433
434
435
436
437
438
439
440
441
442
443
444
445
446
447
448
449
450
451
452
453
454
455
456
457
458
459
460
461
462
463
464
465
466
467
468
469
470
471
472
473
474
475
476
477
478
479
480
481
482
483
484
485
486
487
488
489
490
491
492
493
494
495
496
497
498
499
</DataArray>
<DataArray NumberOfComponents='1' type='Int8' Name='IsActive' format='ascii'>
1
1
1
1
1
1
1
1
1
1
1
1
1
1
1
1
1
1
1
1
1
1
1
1
1
1
1
1
1
1
1
1
1
1
1
1
1
1
1
1
1
1
1
1
1
1
1
1
1
1
1
1
1
1
1
1
1
1
1
1
1
1
1
1
1
1
1
1
1
1
1
1
1
1
1
1
1
1
1
1
1
1
1
1
1
1
1
1
1
1
1
1
1
1
1
1
1
1
1
1
1
1
1
1
1
1
1
1
1
1
1
1
1
1
1
1
1
1
1
1
1
1
1
1
1
1
1
1
1
1
1
1
1
1
1
1
1
1
1
1
1
1
1
1
1
1
1
1
1
1
1
1
1
1
1
1
1
1
1
1
1
1
1
1
1
1
1
1
1
1
1
1
1
1
1
1
1
1
1
1
1
1
1
1
1
1
1
1
1
1
1
1
1
1
1
1
1
1
1
1
1
1
1
1
1
1
1
1
1
1
1
1
1
1
1
1
1
1
1
1
1
1
1
1
1
1
1
1
1
1
1
1
1
1
1
1
1
1
1
1
1
1
1
1
1
1
1
1
1
1
1
1
1
1
1
1
1
1
1
1
1
1
1
1
1
1
1
1
1
1
1
1
1
1
1
1
1
1
1
1
1
1
1
1
1
1
1
1
1
1
1
1
1
1
1
1
1
1
1
1
1
1
1
1
1
1
1
1
1
1
1
1
1
1
1
1
1
1
1
1
1
1
1
1
1
1
1
1
1
1
1
1
1
1
1
1
1
1
1
1
1
1
1
1
1
1
1
1
1
1
1
1
1
1
1
1
1
1
1
1
1
1
1
1
1
1
1
1
1
1
1
1
1
1
1
1
1
1
1
1
1
1
1
1
1
1
1
1
1
1
1
1
1
1
1
1
1
1
1
1
1
1
1
1
1
1
1
1
1
1
1
1
1
1
1
1
1
1
1
1
1
1
1
1
1
1
1
1
1
1
1
1
1
1
1
1
1
1
1
1
1
1
1
1
1
1
1
1
1
1
1
1
1
1
1
1
1
1
1
1
1
1
1
1
1
1
1
1
1
1
1
1
1
1
1
1
1
1
1
1
1
1
1
1
1
1
1
1
1
1
1
1
1
1
1
1
1
1
1
1
</DataArray>
<DataArray NumberOfComponents='1' type='Int32' Name='ParticleTetID' format='ascii'>
100807
32112
100592
11964
75953
99295
57912
84155
100807
102499
104454
101509
76850
98826
66662
59864
36425
90531
100932
61464
52726
101388
19743
97770
97802
100810
71115
52572
100560
47202
27808
100784
31441
48399
100537
93281
54247
71662
77003
78746
39277
71655
104796
106112
68965
83524
92669
50815
101684
22618
98484
80251
8718
100560
91813
101063
99999
86833
49369
91294
104454
47310
106114
79618
105765
100743
101305
35472
39277
71662
96131
86833
89528
80533
80251
88021
105765
33479
79618
94582
99295
63700
91765
20025
2403
98826
106113
101531
104682
54247
80944
97802
93375
104454
101531
100807
99903
11395
89030
58542
25374
101500
37438
61840
50451
50815
57393
86571
50451
66553
9166
96615
101139
57393
66662
85750
104939
59864
101245
77627
101233
100784
90531
98686
48399
92795
97853
48399
92086
37497
92872
100092
59864
98999
63149
31779
66659
93375
89528
100092
13915
85750
90751
2527
88657
106113
97938
88657
100146
95911
53399
79302
95783
72677
57169
66170
91294
41393
99903
99903
48399
68066
91474
50451
100903
48399
47310
102240
85740
101043
100537
6371
90970
66662
94079
79618
101224
13915
27808
100810
104939
96120
98013
90531
101509
98275
91765
100537
101531
100932
47902
95192
52726
85513
71593
54247
98389
91294
74909
92669
79125
92086
92795
63876
73590
98389
100903
47310
61464
91813
93375
93375
100551
49369
37497
64522
49275
10225
24360
100605
56841
97711
101269
13915
53724
91214
63775
80350
97938
40656
2963
69970
80944
97853
85755
101245
63149
80944
13915
68066
92669
77033
61840
54901
90970
59759
105765
97770
87899
99275
39764
30798
97137
89528
49369
85422
59759
101512
101022
100807
70304
100807
20025
53724
98484
71662
101305
98070
70398
100932
98275
85474
56025
49275
32112
61840
61840
98225
26745
79125
98275
80533
37497
101684
40656
85474
59587
101202
44220
100743
31169
13444
97582
84371
99180
105765
61464
6178
23388
91813
64781
8289
10070
97582
77033
18869
85164
5571
94294
96923
54247
100834
96923
71662
98999
100092
90751
100784
101684
79618
85750
88657
63238
106113
74099
27808
101063
34499
86571
52572
100092
79729
106112
59587
101354
59587
40217
101354
98826
100810
11964
80350
53399
99219
94294
61840
101139
72677
59759
76850
38769
37497
101245
77051
71593
59759
98033
49369
84046
96120
2403
61464
31441
92086
101302
91294
77627
100743
25482
4863
65058
77116
52572
95180
98389
98070
70325
93112
66659
90531
104683
53399
56561
83276
89463
57169
225
68965
94740
101043
100068
100834
32112
66659
20025
78946
39277
101321
66636
84371
27808
101509
26849
101224
91765
39277
93281
71662
98430
95783
84371
25374
85755
101500
83334
34499
101531
72448
64781
83334
59307
101432
21429
40993
66659
59759
95192
77033
98999
100810
97711
94485
53724
64402
96338
80350
40656
61840
98484
80428
104682
28810
28823
9166
98070
31329
34433
39277
5047
101354
100054
53399
104796
85164
76206
105765
100263
101531
71662
85422
101302
95180
98430
99160
76850
85740
17928
24934
100004
74909
100560
84046
101224
98033
37438
39277
101063
96120
98430
83414
95063
8251
101063
91474
99075
92086
65058
99075
97711
56492
65892
65892
99219
100881
17468
98999
96131
39277
72448
97582
</DataArray>
<DataArray NumberOfComponents='3' type='Float32' Name='vels' format='ascii'>
4.627524 -0.040316 -0.293058
22.781543 0.271310 0.374043
2.214548 -0.311442 -0.182249
15.895285 -0.839527 -2.183639
21.349524 -0.411362 -0.238899
8.717801 0.541770 -0.777619
18.286604 0.619058 2.508796
1.206961 -0.130585 -0.021384
3.373054 -0.030280 -0.131801
12.873984 -0.648180 -2.405419
3.777998 0.143753 0.017747
8.676082 2.054603 1.160877
15.169813 0.029512 -2.706019
9.150950 0.394759 -1.074576
10.637050 -0.287697 -1.456513
17.181038 -1.908522 -0.696225
3.980640 0.081061 0.062076
13.231118 -2.501698 -0.418952
-0.026415 -0.022530 -0.001653
16.547052 2.192524 -0.782522
21.438377 0.873533 -1.057203
1.342543 0.273887 -0.076496
18.422868 -0.417333 -0.186588
7.420929 -1.455583 -0.767726
18.162109 -1.999537 0.256697
22.415719 -0.632568 0.607772
20.522749 -0.008403 0.183159
20.645937 0.275190 -1.881805
3.678815 -0.436609 0.313615
4.359191 -0.404786 -0.186256
22.146879 -0.386847 -1.120497
9.808141 0.295508 -0.972353
5.078589 -0.902453 -0.809582
19.946207 -0.312638 -2.312411
9.341460 -1.816416 -0.000303
13.107965 -0.103546 -1.107510
14.847956 0.506934 2.928839
17.435371 2.434194 -0.503232
1.777916 -0.037273 -0.018149
11.391124 1.454009 0.832962
2.377528 0.202337 0.055635
3.767801 0.131768 -0.181654
3.740920 0.133433 0.384855
2.638640 0.017086 0.044844
23.328638 -0.374884 0.320165
12.747312 0.122640 1.788600
9.507096 1.657316 1.791401
19.600937 -0.353007 -0.089075
14.215660 -0.260745 -0.013915
10.004162 -0.083826 0.152595
17.089025 -1.518787 -1.498989
2.537600 -0.050530 0.030766
23.009582 0.325746 -0.326038
6.199750 -0.757849 0.894058
7.268669 0.034942 -0.598103
0.186851 -0.017565 -0.021473
5.723215 -0.623149 -0.510850
10.103191 -0.005141 1.153061
12.567095 -1.872031 0.006728
2.969823 0.011299 -0.126751
7.164319 0.307906 0.442638
17.157567 -1.366644 -1.751672
2.175213 -0.154010 -0.382915
21.032434 -0.339963 -1.109509
12.893879 -0.199613 -0.296641
8.872029 -0.407433 0.910017
6.547557 0.062293 0.736749
17.197271 -1.238703 -0.152005
6.706945 0.315543 0.095393
19.941486 1.937152 -0.833946
14.620015 1.433859 -2.384485
14.056502 0.075917 1.728878
8.713671 -1.940026 0.728303
18.979267 -1.116782 0.310823
10.684707 -0.275189 -1.460296
5.544639 0.030005 -0.042242
19.104833 -0.219255 -0.393608
17.334008 -0.504531 2.750440
21.378266 -0.227185 -1.517851
20.319072 -0.125652 -2.014486
0.895865 0.053793 -0.046150
22.103761 -0.413409 -1.289573
13.771900 -1.626378 0.812823
20.622494 1.472163 0.283681
22.478859 -0.979752 -0.389346
9.842769 0.433931 -1.270124
1.930498 -0.136679 -0.401278
23.213495 0.156165 -0.867259
11.666396 1.480839 0.391204
17.212096 0.513789 1.604883
12.836732 -0.221584 2.510156
17.805316 -2.427170 0.597985
23.350440 -0.252399 -0.610445
2.712067 0.088810 -0.034256
22.176680 0.095468 -0.089472
7.385234 0.029789 -0.501847
0.084093 0.051966 -0.016162
19.737730 -0.309493 0.351957
10.589059 -1.108421 1.844735
1.619572 0.037618 -0.019390
14.088029 0.706807 1.820910
1.606835 -0.128690 -0.261860
21.152042 -1.144121 0.603348
19.957212 0.230213 1.913425
21.564359 -1.256081 -0.379055
19.146173 -0.358821 -0.206930
21.931750 0.087524 1.079749
22.570460 0.862032 0.027808
21.259828 -1.404056 -0.504938
3.657296 -0.006639 0.076536
19.483476 0.295759 -0.305108
19.347624 0.090475 -1.469088
2.357809 -0.521578 -0.177429
22.336397 0.249105 1.189371
10.428206 -0.280209 -1.482936
9.625631 -0.201777 1.286976
21.017826 -0.284592 1.424569
16.150262 -1.625879 -1.163464
0.878012 -0.049349 -0.190726
19.990730 -0.039343 1.491677
1.274403 0.318597 0.105285
3.097821 0.100609 -0.210633
12.925392 -1.697013 -0.477818
15.244780 2.119129 -0.660059
18.128368 -0.303603 -2.341693
6.638054 -0.849947 0.639613
21.579568 1.317388 -0.647493
21.309854 -0.446439 -1.965823
21.367842 -1.045331 1.088934
5.946589 0.432708 0.104824
9.401416 0.825476 -1.054233
-0.137189 0.018021 -0.003349
17.463402 -1.487064 -0.944834
13.185325 1.573002 -0.508471
19.543504 0.148911 1.554652
14.597230 0.377688 1.861682
16.624034 0.044534 -2.956067
22.686546 -0.343313 -0.158686
7.551281 -1.130124 0.208926
6.217962 0.023126 -0.373639
23.501208 -0.116032 -0.080091
12.111051 -0.206101 1.931296
11.080123 0.205133 0.621717
23.039813 0.446369 0.443202
18.037823 -0.648961 -1.653669
2.302756 -0.159178 -0.446954
3.784764 0.338994 0.322437
19.225944 -0.987111 -1.804174
13.130912 0.366255 1.943577
13.084503 0.282571 1.676853
12.136452 1.758265 -2.267340
10.903440 -1.279106 -1.770008
22.764347 0.507215 -0.454991
22.491401 -0.958696 0.200497
8.463093 -1.297475 0.568981
3.108058 0.053375 -0.043668
4.439590 0.183165 -0.204062
2.290893 0.034869 -0.077290
0.725429 0.019925 -0.015008
7.311793 -0.127854 -0.440571
18.177133 -0.293960 -1.803060
9.362066 -1.861635 -1.756102
13.391515 -1.437624 2.126941
21.203379 -1.383793 -0.497302
6.263690 0.773123 -0.622198
18.238950 -0.284061 -2.439287
15.980187 -1.273630 -2.112264
19.863966 -0.097814 0.412072
9.434765 1.597880 -0.289711
3.594594 0.434549 -0.429384
2.856890 -0.200042 -0.029555
15.533366 1.433499 1.854226
22.183983 -0.930904 0.862911
9.983906 -0.273209 -1.189733
17.517626 -0.014695 -2.757589
21.525152 -0.309851 -1.170492
4.195272 -0.981857 0.734014
22.857479 -0.086244 0.301828
17.053961 -0.376496 -1.890933
23.016150 -0.589101 -0.163693
22.081534 -0.216321 1.282589
12.059820 -1.426886 1.207850
6.107103 0.093534 -0.538856
12.593396 -1.590124 -0.166841
0.856406 0.010162 0.118413
13.257329 -2.333476 1.774268
13.082371 -1.603654 0.864372
2.054550 -0.098745 -0.073643
23.857897 0.117815 -0.092644
6.523424 -0.427140 -0.427264
21.184502 -0.909776 0.451585
16.560003 0.280367 1.788024
21.065663 0.878433 -1.573860
18.977325 -0.332346 2.280721
0.789481 -0.033745 0.043258
17.773192 0.653576 2.687974
22.425412 0.678667 0.681005
4.934505 0.261215 -0.167292
16.753888 0.826442 -1.251976
9.480223 1.032633 1.006590
18.339655 -0.431478 2.384816
17.493848 -0.902210 2.566489
5.014932 -0.577526 0.374583
16.817419 0.828826 1.820673
5.867612 0.970985 -0.784379
23.195991 0.556895 -0.169911
2.667286 0.342446 -0.185164
17.843058 -1.158106 -1.150476
18.164004 1.854305 0.060024
2.663105 0.022485 -0.210356
23.031577 -0.246907 -0.369515
22.577323 -0.306455 -0.129769
20.192291 -1.662018 -0.007378
13.003837 -1.975503 0.041930
10.364338 1.340961 1.257459
22.586200 0.650923 1.011917
21.819394 0.202696 -1.281567
15.054306 -0.358668 2.148148
19.083493 0.390896 -1.585232
2.930807 0.351286 0.430180
21.606818 -0.592041 -0.694567
19.190384 0.047583 2.140916
6.695937 0.703745 0.441564
22.923804 -0.064691 0.672222
19.325372 -0.436764 -1.804539
0.701075 0.025043 0.027127
16.401002 -0.162164 1.921354
4.588878 -0.033536 0.419517
5.292073 0.665611 0.378216
13.933342 0.065090 -0.850210
5.903017 0.117535 -0.176249
11.383189 -0.454210 -1.572396
8.607418 -0.118448 0.828506
21.891728 1.146889 -0.637709
9.793244 2.110861 -2.043689
0.716437 -0.052741 -0.172368
22.162921 0.297405 1.107997
8.523182 -0.140414 0.817044
23.228762 -0.084422 -0.433990
7.073345 -1.687339 -1.238846
6.027582 0.704478 0.443754
11.925785 -0.085243 -1.626861
17.717788 0.153624 1.770885
16.851429 0.038985 -2.059675
22.438762 -0.752004 0.642291
16.590224 -0.088070 1.522412
4.643554 -0.103590 -0.098371
4.843501 -0.508784 -0.395779
6.668753 1.045079 -0.847360
4.879704 0.310427 0.399767
3.193072 -0.057430 0.045503
22.971742 -0.478838 -0.794297
0.721028 0.038858 0.000151
7.505943 -1.490842 0.960574
14.443562 -2.050844 0.217642
9.645275 0.063158 -1.061226
16.661657 -0.040970 2.302189
0.569232 -0.049587 0.151028
6.157038 -0.439126 0.570879
1.657341 0.010024 -0.168550
23.315436 -0.171057 -0.659535
6.196523 -0.031339 -0.713639
20.116712 1.791528 0.613957
20.327366 -0.417696 -2.385790
19.131941 -1.764243 -1.490087
19.170287 2.163168 -0.237155
10.753578 0.229397 1.329216
22.995492 0.070071 0.715506
21.410761 0.438369 1.508252
8.054809 -0.563792 -0.792175
17.504879 -2.274440 1.481004
9.686859 0.603150 0.933109
21.824968 0.362102 0.632199
21.520296 0.248528 -1.112583
22.260727 0.338544 0.942145
20.258465 0.152061 1.581766
18.844313 0.168912 2.036942
21.711541 0.988194 1.140085
19.821066 -0.545403 0.036580
21.194813 -0.364244 1.770150
17.383313 -1.576649 0.787413
18.433593 -1.670247 1.038063
5.772433 0.595019 0.320868
14.500520 -0.308275 -0.010778
8.565322 0.045798 0.146991
6.353462 0.448611 0.572270
14.554917 1.778536 1.416388
1.084581 -0.184630 -0.010669
17.259666 -1.060326 1.250931
0.860168 -0.017908 0.072361
10.099042 -0.940387 -0.751480
20.178583 0.333972 -1.790858
23.245968 -0.525884 -0.202716
6.213329 0.075709 -0.731765
5.684770 1.403979 1.052850
8.222612 -0.158011 -0.104155
17.525834 1.686976 0.219752
2.231740 0.106136 -0.050549
23.931995 -0.056886 -0.144582
7.609558 0.016147 -0.535618
20.617862 -0.153150 -1.782447
18.741030 1.397500 1.097280
11.986347 -0.778812 -0.855973
22.805022 -0.539817 -0.783570
10.400390 -0.048412 -1.002827