<VTKFile type='UnstructuredGrid' version='1.0' byte_order='LittleEndian' header_type='UInt64'>
<UnstructuredGrid>
<Piece NumberOfCells='500' NumberOfPoints='500'>
<Points>
<DataArray NumberOfComponents='3' type='Float32' Name='Position' format='ascii'>
1.833441 0.661428 0.227608
2.041913 0.322548 0.117272
0.368662 0.978985 0.221547
2.032789 0.817449 0.183718
2.006422 0.772777 0.106364
0.258346 0.191539 0.245938
2.021840 0.236634 0.075397
2.017995 0.818960 0.207017
1.898251 0.658474 0.224551
1.832839 0.786618 0.226660
2.000547 0.222329 0.034662
0.382918 0.005294 0.058221
1.664901 0.633072 0.221287
0.991927 0.151072 0.237574
2.020090 0.731064 0.214867
2.029884 0.896507 0.149988
2.019396 0.268186 0.204956
2.024177 0.929727 0.162309
1.939833 0.816770 0.218865
2.028493 0.103892 0.112536
2.053310 0.240382 0.149626
0.531359 0.102917 0.228536
2.013011 0.752185 0.079681
0.488465 0.991749 0.150357
2.010016 0.889759 0.129730
2.047684 0.745451 0.119795
1.472784 0.492892 0.096024
2.034071 0.303870 0.160488
0.051687 0.855021 0.001877
1.421496 0.961221 0.223562
2.049422 0.718082 0.151819
0.788516 0.271345 0.242378
1.530118 0.977887 0.185852
2.022542 0.715620 0.181877
2.007435 0.963692 0.130137
2.010632 0.639137 0.200410
2.032977 0.238094 0.074622
2.000648 0.118576 0.122908
2.023587 0.621514 0.041745
2.021349 0.083507 0.064647
1.748757 0.065815 0.217097
0.925191 0.197404 0.239715
0.574218 0.283649 0.007922
0.897726 0.030018 0.030805
2.007880 0.710244 0.115067
0.418852 0.526340 0.008914
0.028831 0.128927 0.020034
2.001995 0.747523 0.166309
2.009973 0.935019 0.106858
2.032963 0.684623 0.203324
2.034140 0.855777 0.176953
0.022523 0.665634 0.224207
2.008327 0.295468 0.130869
0.097488 0.849820 0.002386
1.045404 0.268872 0.230572
2.014178 0.336587 0.209485
1.506237 0.910890 0.230833
2.021289 0.403139 0.038827
2.020040 0.916381 0.117455
1.883864 0.044530 0.165399
2.009763 0.231899 0.027127
2.033928 0.852710 0.179680
0.314942 0.991859 0.194533
2.009942 0.676050 0.191148
2.019976 0.708230 0.042371
0.251051 0.723838 0.001491
1.937611 0.341338 0.030025
2.031539 0.915199 0.125560
2.031289 0.095241 0.207983
2.018562 0.097872 0.154440
2.032726 0.151930 0.157049
1.521913 0.274834 0.023502
1.918680 0.966177 0.116538
2.012379 0.857800 0.088540
0.040582 0.652603 0.241891
1.731311 0.647109 0.029090
2.006516 0.709664 0.056035
2.006612 0.733044 0.069206
2.032027 0.708061 0.156368
2.047422 0.659033 0.158041
1.046174 0.119938 0.212667
2.008623 0.671327 0.150335
2.017950 0.932096 0.066731
2.000212 0.119345 0.120454
2.027649 0.788814 0.122788
0.880414 0.188163 0.240088
1.387800 0.983686 0.188845
2.037782 0.301018 0.135393
2.000514 0.077327 0.105807
2.037639 0.231862 0.074891
1.520887 0.759994 0.020567
2.043692 0.901627 0.126913
2.041219 0.688146 0.137356
2.000429 0.215780 0.041495
2.033186 0.327317 0.104475
0.192364 0.612383 0.250010
0.035321 0.562183 0.249574
2.044269 0.818918 0.199550
2.001223 0.848056 0.050231
2.017651 0.129320 0.202862
2.012521 0.233298 0.045845
0.430431 0.980763 0.173669
2.030091 0.839346 0.098504
2.033268 0.354557 0.077770
2.041484 0.819601 0.133527
2.016896 0.735843 0.177114
2.005133 0.350592 0.093012
2.030378 0.211665 0.125291
2.051344 0.818365 0.128576
2.023131 0.039322 0.115082
2.015030 0.096685 0.090606
2.042048 0.398850 0.188016
0.550339 0.912074 0.241455
2.022922 0.372593 0.103430
2.023228 0.730447 0.214347
2.016049 0.756633 0.040487
2.020701 0.649097 0.095229
2.010562 0.904400 0.171377
0.059988 0.992409 0.222073
1.463187 0.496416 0.073928
0.123666 0.043909 0.005728
2.005788 0.276226 0.213360
2.032231 0.932595 0.160442
2.006229 0.058657 0.123712
2.029796 0.721484 0.189331
1.815384 0.899764 0.028483
2.022575 0.188149 0.135854
2.017201 0.681083 0.191017
2.023163 0.803616 0.100864
2.016357 0.106732 0.037931
1.963064 0.151162 0.222408
0.206244 0.505381 0.217352
2.015481 0.887887 0.167531
2.012309 0.059204 0.149143
2.024290 0.352007 0.073397
2.044852 0.258797 0.047845
2.004841 0.367351 0.200467
2.018896 0.681016 0.127061
0.865197 0.989979 0.101763
0.939067 0.465567 0.233405
2.018782 0.639498 0.119193
2.033252 0.732225 0.044826
2.006809 0.305431 0.041686
2.020581 0.271387 0.143559
2.029636 0.772421 0.161292
1.185076 0.984471 0.191713
0.925224 0.012103 0.100842
2.030579 0.775512 0.178289
2.041007 0.276005 0.046258
2.000271 0.289912 0.039032
2.030297 0.105648 0.171593
2.008805 0.883220 0.211431
2.007401 0.237211 0.132114
2.043957 0.792899 0.145899
1.863457 0.960682 0.088450
1.739788 0.964011 0.173170
1.516184 0.024235 0.162981
1.997702 0.371047 0.036404
0.032153 0.566260 0.249908
1.635590 0.659495 0.226516
2.031014 0.717976 0.184907
1.912350 0.954167 0.175986
2.015580 0.844944 0.092940
2.035106 0.799893 0.114166
1.912701 0.129383 0.223330
2.022126 0.726487 0.178634
2.027879 0.840318 0.184213
2.017479 0.630500 0.093234
1.933530 0.045878 0.166160
0.878156 0.025097 0.168517
0.038345 0.987659 0.129206
2.017105 0.149523 0.065801
2.002765 0.755692 0.135449
2.009781 0.723187 0.218147
2.024452 0.367358 0.155246
2.029788 0.686933 0.179488
0.070902 0.987767 0.007844
2.043170 0.614473 0.123196
2.022747 0.721939 0.186483
2.054804 0.758295 0.109029
2.041637 0.681193 0.088195
2.000301 0.875927 0.042103
2.000926 0.300494 0.207650
2.002114 0.947795 0.174869
0.408360 0.024089 0.079877
2.026112 0.916278 0.087320
2.030630 0.922772 0.068881
0.038113 0.988627 0.137704
2.043955 0.337547 0.127159
1.170285 0.886873 0.237966
2.014167 0.830135 0.092786
2.021179 0.297030 0.060840
2.006074 0.222603 0.150129
2.012553 0.718654 0.076826
0.205538 0.879448 0.246082
2.014067 0.221852 0.075742
2.022074 0.220839 0.125137
1.780335 0.041064 0.156573
2.024098 0.190148 0.166427
2.000155 0.115994 0.036692
2.031926 0.750208 0.100893
2.032816 0.780082 0.070591
1.023758 0.937872 0.017885
2.036882 0.229357 0.050515
1.200408 0.015979 0.192431
2.032852 0.230892 0.118425
0.339028 0.163693 0.227618
2.019598 0.843053 0.176573
2.016902 0.101517 0.145640
0.806954 0.462054 0.241729
2.045287 0.712677 0.129932
2.035427 0.694947 0.126864
2.048916 0.864810 0.125488
2.001647 0.913888 0.124021
2.014059 0.089480 0.039694
2.035264 0.224157 0.103852
2.025508 0.345656 0.154944
2.035546 0.726023 0.059531
2.008734 0.276993 0.174787
0.183755 0.027485 0.025145
2.014314 0.785718 0.158959
2.022817 0.412694 0.057546
1.936094 0.128457 0.026166
2.027677 0.625261 0.106097
2.002812 0.754347 0.144586
2.000397 0.043009 0.128105
2.012800 0.666294 0.074063
0.939941 0.623680 0.013556
1.339194 0.010909 0.095947
2.001944 0.360681 0.203661
2.009621 0.190728 0.054982
0.040307 0.704375 0.240844
1.073852 0.792304 0.013460
2.037639 0.183166 0.137945
2.002865 0.054265 0.168639
0.662691 0.972669 0.214832
2.030415 0.333994 0.097299
2.005081 0.638313 0.035432
2.021489 0.647323 0.134533
1.530402 0.953330 0.207015
1.460449 0.069188 0.020395
2.012652 0.670691 0.207114
2.017824 0.348008 0.065318
2.038313 0.328636 0.190803
2.017192 0.772864 0.111412
1.340386 0.501378 0.051292
2.022265 0.669826 0.040038
0.784416 0.985824 0.159876
1.979345 0.108952 0.212946
1.716487 0.168498 0.024856
2.022459 0.678012 0.204441
2.005690 0.712882 0.141472
1.239214 0.992825 0.144018
2.000333 0.953181 0.117134
2.019636 0.910267 0.135929
1.640731 0.319570 0.229148
2.006319 0.572720 0.097924
0.034544 0.996311 0.048975
0.413096 0.797160 0.005611
0.754128 0.650765 0.212582
2.007652 0.682386 0.138880
0.556766 0.625269 0.238711
2.005989 0.126293 0.114610
2.008474 0.747795 0.153841
2.001298 0.857592 0.150809
2.025124 0.119820 0.148109
0.870702 0.317326 0.013872
2.039586 0.412706 0.106171
2.024485 0.316321 0.073033
1.346380 0.883686 0.233862
2.013345 0.882962 0.090390
0.037581 0.187663 0.013056
2.015784 0.275097 0.093220
2.010821 0.308547 0.173000
2.033909 0.289244 0.112282
2.042875 0.331086 0.077792
2.039336 0.339690 0.068817
2.034917 0.195737 0.108191
2.013953 0.922460 0.103780
2.027577 0.749487 0.077519
2.000638 0.887062 0.082849
2.043238 0.860607 0.086299
2.022557 0.107515 0.035134
2.012521 0.933139 0.107317
2.021264 0.348509 0.201991
2.015875 0.174592 0.025673
2.036560 0.107947 0.066608
0.141053 0.964167 0.239113
2.018576 0.840891 0.076544
1.890006 0.770720 0.030009
2.025381 0.883073 0.216368
2.003428 0.277166 0.164066
2.040073 0.728954 0.132857
1.379466 0.236488 0.221320
1.659000 0.058773 0.034791
2.013732 0.699957 0.037390
2.038919 0.091718 0.151174
2.007386 0.174686 0.037130
2.010286 0.565693 0.109033
0.976045 0.382178 0.228831
1.732500 0.546329 0.181282
2.010992 0.147421 0.096275
2.023444 0.832276 0.209149
2.038118 0.748146 0.141266
2.007447 0.660923 0.215475
2.007343 0.252245 0.045028
2.038461 0.336184 0.102265
2.032140 0.948573 0.123652
1.814016 0.122259 0.029801
2.013046 0.936125 0.068833
2.036578 0.240857 0.056613
0.954260 0.427649 0.016497
2.019009 0.931509 0.079621
2.026656 0.128085 0.135971
2.011742 0.078111 0.152927
0.195352 0.510791 0.233258
2.005825 0.296214 0.042500
1.610536 0.220124 0.233603
2.020640 0.930446 0.117839
2.012230 0.680055 0.167305
2.024435 0.735181 0.039485
2.025570 0.769084 0.186028
2.012501 0.643426 0.035387
0.754629 0.987682 0.197669
0.039876 0.426419 0.016175
2.002534 0.716035 0.146029
0.066703 0.374145 0.241636
1.748929 0.053480 0.039195
2.028122 0.221336 0.119898
2.000288 0.313538 0.179206
0.013375 0.513900 0.240789
1.060442 0.226053 0.230696
1.112988 0.019692 0.041551
2.023364 0.091646 0.073414
0.007811 0.605221 -0.000325
2.022095 0.088833 0.073625
2.023175 0.607116 0.038665
2.028521 0.663280 0.028983
0.011480 0.278743 0.235345
2.048770 0.749451 0.090866
2.029164 0.787634 0.187305
1.915900 0.581496 0.038282
2.001214 0.102727 0.166548
1.498094 0.979722 0.066645
0.753350 0.116136 0.026267
2.016937 0.339622 0.074967
0.018953 0.890552 0.250145
2.000588 0.799573 0.125313
2.018788 0.585346 0.066433
2.010143 0.602290 0.201903
2.028930 0.271324 0.174884
2.010875 0.104483 0.044686
0.329436 0.982277 0.217003
2.026492 0.348990 0.140628
1.719720 0.918683 0.225847
2.033815 0.595950 0.076129
0.261591 0.011078 0.209183
2.031101 0.930411 0.137363
2.004660 0.865858 0.205160
2.002627 0.901958 0.043426
2.025588 0.792722 0.125310
2.036936 0.079405 0.138733
1.510150 0.971312 0.203769
2.006244 0.790524 0.087015
0.824567 0.021190 0.039171
0.662558 0.020032 0.164093
1.571820 0.379505 0.065749
0.016403 0.747679 0.010752
2.007610 0.172173 0.078813
2.007702 0.234239 0.216311
1.357096 0.497568 0.052395
0.679891 0.537369 0.229279
2.020352 0.301361 0.168629
2.011723 0.880291 0.032407
2.054257 0.245705 0.112442
1.182326 0.472027 0.108281
2.005327 0.901170 0.181384
2.004935 0.129279 0.216811
2.014286 0.350295 0.187820
2.016464 0.939830 0.139259
2.040402 0.096788 0.101012
2.001294 0.107314 0.184666
0.945038 0.025218 0.213639
2.038295 0.102904 0.177095
2.025195 0.408903 0.144709
1.750502 0.965727 0.088237
2.020001 0.799353 0.160508
2.012249 0.715509 0.135389
1.034475 0.994752 0.089585
0.034259 -0.000089 0.183998
2.032238 0.901429 0.052711
0.745050 0.481119 0.008611
2.047931 0.313367 0.104281
2.023425 0.371297 0.189176
2.033696 0.125638 0.135117
1.999627 0.672366 0.029468
2.009439 0.111121 0.210674
0.153604 0.985979 0.021633
2.001362 0.282336 0.081177
1.733437 0.360504 0.220023
2.016776 0.724579 0.168284
0.013380 0.011989 0.085347
2.007751 0.161367 0.097244
0.380694 0.958795 0.016297
2.021828 0.925834 0.076102
1.938010 0.093080 0.207510
2.012108 0.659642 0.207532
2.023007 0.116935 0.149028
2.001221 0.669073 0.192203
2.049318 0.245117 0.121517
2.007857 0.404492 0.211926
2.014259 0.206345 0.053412
2.029388 0.052975 0.176435
0.475871 0.989000 0.168369
2.017891 0.273142 0.089601
1.759340 0.069827 0.032086
2.001818 0.350240 0.144337
2.018226 0.826991 0.177203
1.399687 0.503077 0.193422
2.040798 0.271093 0.087862
2.039047 0.789668 0.048091
1.110432 0.058456 0.018573
1.730691 0.918166 0.218104
2.010548 0.695931 0.089083
2.015575 0.353923 0.199898
2.014640 0.582777 0.057398
2.024173 0.282589 0.075697
2.017580 0.697172 0.227207
2.025903 0.091580 0.162508
2.039833 0.740614 0.110457
2.045441 0.386358 0.068500
1.335714 0.018388 0.195331
2.035768 0.751377 0.149175
2.021132 0.167951 0.105210
2.030107 0.426089 0.134212
0.951639 0.654660 0.016240
2.017631 0.345764 0.201357
2.033975 0.332578 0.095046
2.024310 0.858399 0.143123
1.740631 0.335951 0.026007
2.036353 0.070023 0.119429
2.006043 0.826376 0.044697
2.033033 0.715423 0.127692
2.040083 0.091923 0.085418
2.023243 0.436303 0.110260
2.038732 0.267869 0.046259
2.022422 0.186151 0.198259
2.029531 0.103716 0.205389
2.015052 0.920555 0.112129
0.363521 0.618261 0.003860
0.227932 0.684534 0.246941
2.017961 0.096528 0.184175
2.003892 0.262647 0.030832
2.024277 0.380779 0.080066
0.627779 0.650393 0.012225
2.000152 0.715168 0.043558
2.015801 0.293648 0.220570
2.019767 0.325567 0.131726
2.010451 0.114133 0.153634
2.014853 0.372002 0.213192
0.750979 0.021928 0.039628
2.018938 0.868010 0.039757
2.008738 0.657800 0.178482
0.040894 0.572438 0.014099
1.357131 0.758838 0.224500
1.922360 0.041733 0.161266
1.792128 0.065876 0.214317
2.024197 0.296343 0.159639
1.783441 0.723811 0.022178
2.003979 0.189402 0.181230
0.047646 0.852974 -0.000133
1.987994 0.858262 0.220062
0.375320 0.953465 0.011399
0.150313 0.003063 0.208453
2.007821 0.839730 0.099613
2.028238 0.101937 0.203735
0.028642 0.374219 0.239300
2.006695 0.889089 0.035418
2.033046 0.667468 0.200239
1.462701 0.511135 0.126806
0.074593 0.940822 0.002566
2.017117 0.290534 0.208101
0.018155 0.388646 0.245975
2.042207 0.866436 0.076275
1.728849 0.954491 0.052809
2.005977 0.763890 0.090744
1.343288 0.500507 0.051636
1.681660 0.959082 0.052833
2.019777 0.409893 0.057595
2.007231 0.605300 0.202884
2.003610 0.932416 0.091151
2.013677 0.949706 0.108499
1.054198 0.987279 0.071193
0.880623 0.012419 0.056378
1.510030 0.020794 0.177378
2.019279 0.075744 0.157400
2.007864 0.166258 0.184835
2.007855 0.119610 0.200900
2.033492 0.829768 0.188287
2.009141 0.738372 0.125480
</DataArray>
</Points>
<PointData>
<DataArray NumberOfComponents='1' type='Int32' Name='ParticleType' format='ascii'>
1
1
1
1
1
1
1
1
1
1
1
1
1
1
1
1
1
1
1
1
1
1
1
1
1
1
1
1
1
1
1
1
1
1
1
1
1
1
1
1
1
1
1
1
1
1
1
1
1
1
1
1
1
1
1
1
1
1
1
1
1
1
1
1
1
1
1
1
1
1
1
1
1
1
1
1
1
1
1
1
1
1
1
1
1
1
1
1
1
1
1
1
1
1
1
1
1
1
1
1
1
1
1
1
1
1
1
1
1
1
1
1
1
1
1
1
1
1
1
1
1
1
1
1
1
1
1
1
1
1
1
1
1
1
1
1
1
1
1
1
1
1
1
1
1
1
1
1
1
1
1
1
1
1
1
1
1
1
1
1
1
1
1
1
1
1
1
1
1
1
1
1
1
1
1
1
1
1
1
1
1
1
1
1
1
1
1
1
1
1
1
1
1
1
1
1
1
1
1
1
1
1
1
1
1
1
1
1
1
1
1
1
1
1
1
1
1
1
1
1
1
1
1
1
1
1
1
1
1
1
1
1
1
1
1
1
1
1
1
1
1
1
1
1
1
1
1
1
1
1
1
1
1
1
1
1
1
1
1
1
1
1
1
1
1
1
1
1
1
1
1
1
1
1
1
1
1
1
1
1
1
1
1
1
1
1
1
1
1
1
1
1
1
1
1
1
1
1
1
1
1
1
1
1
1
1
1
1
1
1
1
1
1
1
1
1
1
1
1
1
1
1
1
1
1
1
1
1
1
1
1
1
1
1
1
1
1
1
1
1
1
1
1
1
1
1
1
1
1
1
1
1
1
1
1
1
1
1
1
1
1
1
1
1
1
1
1
1
1
1
1
1
1
1
1
1
1
1
1
1
1
1
1
1
1
1
1
1
1
1
1
1
1
1
1
1
1
1
1
1
1
1
1
1
1
1
1
1
1
1
1
1
1
1
1
1
1
1
1
1
1
1
1
1
1
1
1
1
1
1
1
1
1
1
1
1
1
1
1
1
1
1
1
1
1
1
1
1
1
1
1
1
1
1
1
1
1
1
1
1
1
1
1
1
1
1
1
1
1
1
1
1
1
1
1
1
1
1
1
1
1
1
1
1
1
1
1
1
1
1
1
1
1
1
1
1
1
1
1
1
</DataArray>
<DataArray NumberOfComponents='1' type='Int32' Name='ParticleID' format='ascii'>
0
1
2
3
4
5
6
7
8
9
10
11
12
13
14
15
16
17
18
19
20
21
22
23
24
25
26
27
28
29
30
31
32
33
34
35
36
37
38
39
40
41
42
43
44
45
46
47
48
49
50
51
52
53
54
55
56
57
58
59
60
61
62
63
64
65
66
67
68
69
70
71
72
73
74
75
76
77
78
79
80
81
82
83
84
85
86
87
88
89
90
91
92
93
94
95
96
97
98
99
100
101
102
103
104
105
106
107
108
109
110
111
112
113
114
115
116
117
118
119
120
121
122
123
124
125
126
127
128
129
130
131
132
133
134
135
136
137
138
139
140
141
142
143
144
145
146
147
148
149
150
151
152
153
154
155
156
157
158
159
160
161
162
163
164
165
166
167
168
169
170
171
172
173
174
175
176
177
178
179
180
181
182
183
184
185
186
187
188
189
190
191
192
193
194
195
196
197
198
199
200
201
202
203
204
205
206
207
208
209
210
211
212
213
214
215
216
217
218
219
220
221
222
223
224
225
226
227
228
229
230
231
232
233
234
235
236
237
238
239
240
241
242
243
244
245
246
247
248
249
250
251
252
253
254
255
256
257
258
259
260
261
262
263
264
265
266
267
268
269
270
271
272
273
274
275
276
277
278
279
280
281
282
283
284
285
286
287
288
289
290
291
292
293
294
295
296
297
298
299
300
301
302
303
304
305
306
307
308
309
310
311
312
313
314
315
316
317
318
319
320
321
322
323
324
325
326
327
328
329
330
331
332
333
334
335
336
337
338
339
340
341
342
343
344
345
346
347
348
349
350
351
352
353
354
355
356
357
358
359
360
361
362
363
364
365
366
367
368
369
370
371
372
373
374
375
376
377
378
379
380
381
382
383
384
385
386
387
388
389
390
391
392
393
394
395
396
397
398
399
400
401
402
403
404
405
406
407
408
409
410
411
412
413
414
415
416
417
418
419
420
421
422
423
424
425
426
427
428
429
430
431
432
433
434
435
436
437
438
439
440
441
442
443
444
445
446
447
448
449
450
451
452
453
454
455
456
457
458
459
460
461
462
463
464
465
466
467
468
469
470
471
472
473
474
475
476
477
478
479
480
481
482
483
484
485
486
487
488
489
490
491
492
493
494
495
496
497
498
499
</DataArray>
<DataArray NumberOfComponents='1' type='Int8' Name='IsActive' format='ascii'>
1
0
1
0
0
1
0
0
1
1
0
1
1
1
0
0
0
0
1
0
0
1
0
1
0
0
1
0
1
1
0
1
1
0
0
0
0
0
0
0
1
1
1
1
0
1
1
0
0
0
0
1
0
1
1
0
1
1
0
1
0
0
1
0
0
1
1
0
0
0
0
1
1
0
1
1
0
0
0
0
1
0
0
0
0
1
1
0
0
0
1
0
0
0
0
0
1
0
0
0
0
1
0
0
0
0
0
0
0
0
0
0
1
0
0
0
0
0
1
1
1
1
0
0
0
1
0
0
0
0
1
1
0
0
0
0
0
0
1
1
0
0
0
0
0
1
1
0
0
0
0
0
0
0
1
1
1
1
1
1
0
1
0
0
1
0
0
0
1
1
1
0
0
0
0
0
1
0
0
0
0
0
0
0
1
0
0
1
0
1
0
0
0
0
1
0
0
1
0
0
0
0
1
0
1
0
1
0
0
1
0
0
0
0
0
0
0
0
0
1
0
0
1
0
0
0
0
1
1
0
0
1
1
0
0
1
0
0
0
1
1
0
0
0
0
1
0
1
1
1
0
0
1
0
0
1
0
1
1
1
0
1
0
0
0
0
1
0
0
1
0
1
0
0
0
0
0
0
0
0
0
0
0
0
0
0
0
1
0
1
0
0
0
1
1
0
0
0
0
1
1
0
0
0
0
0
0
0
1
0
0
1
0
0
0
1
0
1
0
0
0
0
0
1
1
0
1
1
0
0
1
1
1
0
0
0
0
0
1
0
0
1
0
1
1
0
0
0
0
0
0
0
1
0
1
0
1
0
0
0
0
0
1
0
1
1
1
1
0
0
1
1
0
0
0
1
0
0
0
0
0
0
1
0
0
1
0
0
1
0
0
1
0
0
0
1
0
1
0
1
0
1
0
1
0
1
0
0
0
0
0
0
0
1
0
1
0
0
1
0
0
1
1
0
0
0
0
0
0
0
0
1
0
0
0
1
0
0
0
1
0
0
0
0
0
0
0
0
0
1
1
0
0
0
1
0
0
0
0
0
1
0
0
1
1
1
1
0
1
0
0
1
1
1
0
0
1
0
0
1
1
0
1
0
1
0
1
1
0
0
0
0
1
1
1
0
0
0
0
0
</DataArray>
<DataArray NumberOfComponents='1' type='Int32' Name='ParticleTetID' format='ascii'>
48167
-50400
49067
-69862
-102510
41397
-69112
-82730
33909
104201
-90622
35166
104637
79759
-82225
-93293
-91090
-74058
49325
-98831
-12127
33914
-98411
36737
-93293
-102840
12441
-91191
89738
87757
-34180
98316
46058
-39168
-100141
-81615
-69112
-42296
-100758
-96731
59922
34544
81286
38611
-90119
49792
94294
-93119
-79211
-82225
-90337
80251
-25302
76283
33733
-96944
92371
-81404
-27681
32609
-90622
-90337
20471
-57434
-90680
72893
22235
-27681
-44138
-104925
-80727
74478
10090
-96019
80251
104975
-75610
-98411
-34180
-57434
34114
-57434
-89958
-42296
-102510
93690
90772
-50400
-98306
-69112
35252
-93293
-104802
-99907
-83399
-79063
99903
-90337
-79597
-82515
-90622
8604
-96019
-58762
-86274
-93119
-58762
-98765
-86274
-97395
-96731
-44272
82445
-24526
-82225
-92602
-87306
-96325
98699
24037
82439
-91090
-74058
-98831
-39168
43380
-98765
-39168
-17626
-96893
12505
14876
-96325
-104925
-58762
-64130
-96944
-104802
55298
52767
-95998
-92602
-88016
-12127
-70156
96550
88292
-70156
-92373
-88016
-44138
-105710
-83215
-102510
9628
94888
78623
90159
99903
72802
-39168
51918
-96019
-17626
24555
-39168
-90337
-74393
104765
22183
97137
-87514
-102840
-82225
-93819
-39168
99809
-96354
-39168
-102840
-91248
-105531
-91090
-74058
48711
-89958
-89958
97137
-96849
54437
-96019
-92373
-85990
-91248
96040
-69112
-83215
55180
-85990
-96893
-102840
-83820
97017
-64130
99501
-83215
42616
-90337
-98831
99049
-34180
-104802
-98210
-27681
-96893
-69112
-98308
-91248
-61396
86348
-70156
-46315
59544
-74393
-102840
-100053
-82524
40408
65684
-96944
-70433
69970
19768
-99021
-104925
37697
-83399
-90231
-104802
433
35952
-81615
-58762
-98308
-102510
43610
-90231
17685
19247
94807
-82225
-34180
78324
-90339
-27681
76874
-84540
99980
59344
90992
-104802
91957
-42296
-93119
-98210
-42296
16772
-90131
-83399
67211
-96019
85474
-94130
-91191
-25302
-83399
-58762
-99021
-79211
-98411
-48492
-96019
-96893
-79211
-96944
-70433
-100353
103165
-96019
53712
-105710
-61396
-34180
7278
48258
-90680
-98831
-70433
-100422
16002
36850
-24687
-82730
-102840
-81615
-90622
-83399
-27681
89053
-89958
-64130
1313
-89958
-42296
-104925
14876
-88016
30502
-27681
-57434
-92602
-94146
-90231
11811
74099
-34180
61667
62819
-83215
-91191
100092
14374
77046
-96731
-101355
-96731
-104379
-90231
98826
-98411
-94146
16317
-44138
104058
61297
-58762
-71594
-17626
-25092
-78226
-61396
-96893
70468
-96849
91433
-25092
70265
-27681
-99052
-105531
-17626
-98831
47710
-83820
70459
12026
7920
100743
-56272
-82325
30001
29411
-91191
-105531
-83215
40910
-96325
-82515
-98308
-43214
-98306
-44138
38699
-44138
-19405
20789
-70156
-34180
98026
-101044
-48492
65973
-94130
-98308
-42296
101125
-82515
101296
-94130
100480
-93119
101509
-24687
47729
-89958
17233
-81615
-42296
-42146
-83215
-89384
-70433
-104925
97495
-94130
85868
-99096
-69862
2321
-94130
-99911
83533
64937
-91248
-96944
-25092
-92373
-82225
-104925
-102840
-24526
5813
-102840
-24687
-19405
38522
-96944
-83399
-98210
69300
-98831
-79597
-34180
-96731
-69914
-92373
-99721
-44138
-27681
53417
94385
-44138
-101289
-24526
98108
-90680
-91090
-50400
-42296
-96944
47309
-105531
-42146
88021
22678
104765
66324
-95447
49356
-99721
-100561
84994
47729
100376
-96019
-44138
101063
-105531
-42146
60140
99121
-91090
101063
-96019
18142
-98411
43610
37670
-46315
-78226
-79211
-79211
99585
79714
78623
-104925
-99721
-44138
-90337
-102840
</DataArray>
<DataArray NumberOfComponents='3' type='Float32' Name='vels' format='ascii'>
12.847922 -1.886592 -0.035404
22.746117 0.571945 -0.290697
1.682366 0.004395 0.001681
20.081773 -0.217840 -0.277921
23.484112 -0.510887 0.083072
1.371447 -0.016995 0.000361
20.333378 0.277334 -0.621174
12.783111 0.221707 0.073535
7.966197 -0.614903 -0.029844
0.276205 -0.032258 -0.000083
0.217718 0.013813 0.058638
1.247976 -0.002609 0.007045
2.786285 -1.399441 0.002514
9.921126 -2.192813 0.014620
13.642843 -0.263199 -0.225210
20.644419 -0.244898 0.011251
14.087736 0.281257 1.252631
14.293141 1.904616 0.878634
9.837849 -0.376948 -0.077589
19.044396 -1.244907 -0.238396
21.835456 0.067503 1.640637
4.246639 -0.105029 -0.008044
20.051412 -0.328575 -0.076616
2.163093 0.006746 0.012984
18.297037 -0.214221 0.115799
22.591256 -0.226395 0.244628
3.069450 -0.178336 0.167595
21.418610 0.522880 0.667956
0.504536 -0.067106 0.035669
4.682304 -0.124002 -0.002727
22.058982 -0.221339 0.905368
2.863512 -0.857210 -0.001552
9.236831 -0.192765 0.088349
19.420937 -0.419907 0.689956
9.525294 1.051627 0.162017
9.873437 -0.276749 0.223623
19.690416 0.183231 -1.354405
17.262796 -0.581290 -0.236368
13.020581 -0.450925 -1.719911
13.718675 -1.653544 -1.157650
11.989340 0.836079 0.005037
5.145754 -2.012669 0.000237
2.834483 -0.184268 0.000164
4.776885 -0.083441 -0.029283
23.253517 -0.506630 -0.243077
3.260107 0.007905 -0.000656
0.161100 0.029491 -0.005147
21.234953 -0.478901 -0.021576
16.783738 0.725048 0.022270
15.336051 -0.375124 2.450828
15.641460 0.592641 2.478244
0.079052 -0.025478 0.010868
23.583462 0.705706 0.031841
0.743311 -0.002315 -0.000014
7.115513 -5.246854 0.114845
12.898903 0.342379 1.238865
10.324930 -1.095297 -0.018512
13.280735 0.278610 0.164190
16.294222 1.334800 -0.294998
9.795026 0.186660 0.009306
5.808161 -0.012437 -0.307565
15.971599 0.661878 2.362355
1.813544 0.004196 -0.002279
16.469972 -0.440812 0.460427
8.803361 -0.053175 -1.230980
0.546118 0.004308 -0.000187
13.072473 0.697960 0.112390
16.358776 2.099030 -0.512324
13.698757 -1.440865 2.243215
12.106804 0.099396 -0.173926
20.829917 -0.376475 0.351593
14.151768 7.073510 0.063488
8.525208 -0.133539 0.007283
21.624399 0.251894 -0.102345
-0.087469 0.004078 0.001111
0.264568 -0.053181 -0.000005
18.270654 -0.489875 0.186874
16.029687 -0.488661 0.199500
22.453575 -0.519201 0.546982
20.858756 -0.561026 1.745228
23.585842 -4.589872 0.003906
22.318605 -0.637696 0.060034
12.451290 1.606906 -1.239628
17.872999 -0.508012 -0.210598
21.544261 -0.576351 -0.237666
4.505624 -1.370265 -0.001917
9.476926 -0.035801 -0.028661
22.850020 0.504740 0.291769
16.743318 -0.167094 -0.066923
20.405083 0.175823 -1.416689
11.134559 -5.325688 0.033066
18.397170 2.312845 0.926571
22.928140 -0.721532 0.020940
1.092060 -0.057378 -0.099089
21.674624 0.629290 -1.020716
0.117633 0.000420 0.000014
-0.068230 0.033681 0.009896
18.277976 1.459873 2.053854
15.193783 -0.200755 0.411678
8.382616 -1.056661 1.118900
9.911597 0.030293 -0.531683
4.117667 0.011567 -0.032402
16.604183 0.954922 -1.554912
16.518350 0.455337 -2.328386
22.200797 0.725471 -0.532589
19.328759 -0.349707 0.354440
19.388330 0.531497 -1.176200
23.505890 -0.017541 0.011079
21.587448 0.974728 -0.641169
9.527705 -1.530749 -0.112747
16.482712 -1.531327 -0.673981
20.251569 0.364379 1.295825
2.229107 0.032221 -0.012809
22.036278 0.624905 -0.469285
14.124127 -0.284270 -0.217126
10.498283 -0.075992 -0.761585
21.786999 -0.601339 -0.143358
14.298232 0.925327 0.629781
0.599048 -0.000396 -0.001461
3.323828 0.149692 0.327882
0.716467 -0.005876 0.003056
6.375299 0.134909 0.583683
14.099799 2.576252 1.169191
13.357897 -0.648771 -0.039844
17.437643 -0.326126 1.677305
8.515245 -0.655190 0.025626
23.130137 -0.019389 0.136113
16.798710 -0.409249 0.846982
21.975496 -0.398811 0.347033
11.426230 -1.001875 -1.211797
8.178862 0.109913 -0.173504
10.633725 0.000020 0.020745
17.775444 0.811653 0.366037
14.614608 -2.401172 0.802102
16.323602 0.461840 -1.527500
20.101702 0.219511 -1.888051
10.340887 0.260235 0.538024
23.078656 -0.988561 -0.027553
4.178301 0.063624 -0.027658
1.414642 -0.463424 0.010053
22.910553 -0.665074 -0.024346
15.478941 0.434950 -2.683764
3.843808 0.025786 -0.011749
23.086697 0.462772 0.127130
20.097993 -0.001831 0.998274
8.035954 0.059469 -0.016463
5.201156 -0.076535 -0.006765
21.604291 0.016050 0.594368
20.440455 0.307652 -1.507826
3.309534 0.025848 -0.069147
16.746200 -1.534288 1.226030
10.253146 0.947459 1.119102
23.785807 0.531745 -0.031865
21.848852 0.420922 0.793156
7.980952 -0.123449 0.039696
2.333749 -0.021313 0.027244
12.098675 0.270427 0.080543
2.270619 0.079666 0.107651
-0.195313 0.015196 0.004402
6.227694 -4.048885 -0.002795
17.330247 -0.352344 1.789258
12.505266 -0.385795 -0.088741
19.581049 0.422816 -0.371368
23.074533 -0.332614 -0.039117
12.616064 0.654647 -0.081220
16.564731 -0.331065 1.203524
19.095386 0.410807 1.106184
21.597133 -0.714607 0.164443
10.259204 0.225731 -0.011047
8.828557 -0.229250 0.005095
0.010240 -0.004673 0.002482
18.889380 -0.021748 0.028150
23.744358 -0.623742 0.078356
6.083785 -0.114745 0.693848
21.550093 0.597724 0.177560
19.931805 -0.620684 -0.104144
0.167501 0.003401 -0.000551
22.186483 -0.580909 0.085191
18.532700 -0.364004 0.898198
22.731125 -0.410106 -0.267865
16.903104 -0.287756 -3.000994
2.618152 0.214458 0.047809
14.810948 0.363075 0.196271
10.891050 0.859468 0.466115
5.695404 0.004279 0.024836
15.925088 1.660978 -1.064572
13.425174 2.439846 -1.661108
0.059083 -0.001615 -0.008488
22.474392 0.693944 0.051149
9.020211 0.225805 0.008714
16.990761 0.499263 -0.526326
17.556272 0.387056 -1.088772
22.424382 0.267650 -0.125181
19.438241 -0.645570 0.307630
1.188100 0.010879 -0.000603
19.790404 0.145941 -0.245545
23.805036 0.246133 -0.090822
10.934531 0.342594 -0.069992
17.974424 -0.188307 1.097113
11.220117 -0.667190 -0.338685
22.916248 -0.253452 -0.514480
18.818351 0.349067 -1.391396
8.331569 0.526780 -0.019927
15.899244 0.166904 -2.510908
6.567750 -0.035817 -0.086578
23.480659 0.156312 -0.174877
6.799322 -0.075857 0.006174
18.643998 0.568643 0.689326
18.384430 -0.878138 0.303210
1.976039 -0.145669 -0.000908
23.583081 -0.560089 0.024302
23.161558 -0.767744 -0.045548
20.291565 1.561776 -0.694303
16.401910 -0.321120 -0.053734
10.492033 -1.280470 -1.330174
21.410000 0.626257 0.310330
18.442322 0.652253 -0.220620
17.690202 -0.279277 -2.290119
18.769647 0.377517 0.667154
0.135208 -0.000672 0.010973
17.750980 -0.020871 0.508239
17.540848 0.458101 -1.060460
7.600515 0.257922 0.069378
20.417662 -0.645471 0.231195
23.602854 -0.615112 0.038929
12.160696 -1.012091 0.189499
18.576584 -0.501876 -0.358508
1.435745 2.021151 -0.018335
11.971339 0.008842 -0.053210
13.702585 0.396953 0.289287
6.917325 -0.024386 0.013341
-0.127895 -0.031265 0.004509
15.377266 5.170115 -0.035631
21.328316 0.562810 0.238438
12.057405 0.044548 -0.097366
4.422239 0.060486 0.002354
22.195289 0.732663 -0.247530
2.252395 -0.033993 0.023985
22.344953 -0.609651 0.782143
12.095025 -0.459748 0.077794
12.017036 0.818483 0.002448
15.872573 -0.624415 -0.376809
21.407858 0.824238 0.337188
17.297617 0.488402 2.433505
23.606339 -0.372745 -0.031862
5.489815 -0.114495 -0.272122
13.166489 -0.210343 -1.750043
4.351866 0.084185 0.041121
9.583581 -0.169362 -0.125518
9.645027 1.985032 0.007537
14.328609 -0.354769 1.438157
21.838368 -0.661170 -0.191753
4.980207 0.000904 0.003611
1.967034 -0.040918 -0.033000
15.580226 -0.323972 0.093963
6.563084 3.848001 0.004612
21.053992 -0.422851 0.024730
-0.012959 0.001507 0.037698
1.987470 0.040669 -0.000700
10.036752 2.030536 -0.001274
23.244983 -0.730652 -0.131282
11.243838 0.401070 -0.002734
20.722970 -0.207133 -0.102217
22.750940 -0.531753 0.033055
20.545453 -0.083357 -0.102342
20.285490 -0.903266 0.046184
3.967560 -2.143247 0.005296
21.801124 0.497681 -0.757091
19.879728 0.548398 -0.714806
11.484521 -0.013552 -0.003457
18.274489 0.518023 -0.272507
-0.012613 0.000099 -0.005962
22.049778 0.519534 -0.195881
19.783170 0.573937 0.196976
23.087101 0.531150 0.110178
20.744513 0.554739 -1.416790
18.689961 0.464014 -2.153891
22.952633 -0.348073 -0.012363
15.385875 1.081334 -0.018862
20.312842 -0.228192 -0.737240
18.555870 0.457150 -0.153506
18.423548 1.307541 -2.021391
10.524621 -1.063843 -1.645949
16.597472 0.870109 0.031602
13.153952 0.251382 1.635128
15.026963 -0.710945 -2.419758
15.862789 -1.859636 -1.900831
1.257804 -0.003378 0.006592
20.159521 0.339274 -0.414015
9.869473 -0.835402 0.049035
12.441263 0.840484 0.891875
21.204620 0.562607 -0.004813
21.937366 -0.464106 0.805875
13.795870 -1.415422 0.147564
9.985340 0.755441 0.001330