<VTKFile type='UnstructuredGrid' version='1.0' byte_order='LittleEndian' header_type='UInt64'>
<UnstructuredGrid>
<Piece NumberOfCells='500' NumberOfPoints='500'>
<Points>
<DataArray NumberOfComponents='3' type='Float32' Name='Position' format='ascii'>
1.671329 0.705236 0.227716
2.041913 0.322548 0.117272
0.353864 0.978213 0.221649
2.032789 0.817449 0.183718
2.006422 0.772777 0.106364
0.234003 0.192013 0.246610
2.021840 0.236634 0.075397
2.017995 0.818960 0.207017
1.709018 0.693422 0.225106
1.718469 0.806099 0.227186
1.997766 0.221330 0.033557
0.357610 0.005137 0.057172
1.579522 0.691413 0.220743
0.837235 0.199119 0.237031
2.020090 0.731064 0.214867
2.029884 0.896507 0.149988
2.019396 0.268186 0.204956
2.024177 0.929727 0.162309
1.670991 0.848847 0.219283
2.028493 0.103892 0.112536
2.053310 0.240382 0.149626
0.408746 0.105781 0.229122
2.013011 0.752185 0.079681
0.414280 0.991165 0.149595
2.010016 0.889759 0.129730
2.047684 0.745451 0.119795
1.372347 0.497233 0.093431
2.034071 0.303870 0.160488
0.045995 0.853798 0.002155
1.212609 0.961251 0.223052
2.049422 0.718082 0.151819
0.667343 0.295864 0.242796
1.325574 0.980241 0.187553
2.022542 0.715620 0.181877
1.858740 0.963316 0.129591
2.010632 0.639137 0.200410
2.032977 0.238094 0.074622
2.000648 0.118576 0.122908
2.023587 0.621514 0.041745
2.021349 0.083507 0.064647
1.543309 0.053934 0.217681
0.791008 0.246923 0.238846
0.515850 0.287851 0.007842
0.788950 0.033710 0.031552
2.007880 0.710244 0.115067
0.347422 0.526385 0.008123
0.028225 0.128888 0.020463
2.001995 0.747523 0.166309
2.009973 0.935019 0.106858
2.032963 0.684623 0.203324
2.034140 0.855777 0.176953
0.022423 0.667673 0.223561
2.008327 0.295468 0.130869
0.052992 0.850951 0.002746
0.972794 0.364716 0.227894
2.014178 0.336587 0.209485
1.236954 0.921049 0.231091
1.793769 0.389932 0.038014
2.020040 0.916381 0.117455
1.677495 0.036727 0.166553
1.859720 0.226171 0.027751
2.033928 0.852710 0.179680
0.281255 0.991560 0.194995
2.009942 0.676050 0.191148
2.019976 0.708230 0.042371
0.238896 0.723467 0.001719
1.751477 0.316729 0.029441
2.031539 0.915199 0.125560
1.996967 0.098628 0.202350
2.018562 0.097872 0.154440
2.032726 0.151930 0.157049
1.271563 0.242335 0.024088
1.703497 0.972649 0.116282
2.012379 0.857800 0.088540
0.041467 0.653360 0.242922
1.601288 0.709526 0.028032
2.006516 0.709664 0.056035
2.006612 0.733044 0.069206
2.032027 0.708061 0.156368
2.047422 0.659033 0.158041
0.765055 0.181493 0.213044
2.008623 0.671327 0.150335
2.017950 0.932096 0.066731
2.000212 0.119345 0.120454
2.027649 0.788814 0.122788
0.788024 0.215878 0.240586
1.165196 0.983979 0.187665
2.037782 0.301018 0.135393
2.000514 0.077327 0.105807
2.037639 0.231862 0.074891
1.267528 0.791340 0.020287
2.043692 0.901627 0.126913
2.041219 0.688146 0.137356
2.000429 0.215780 0.041495
2.033186 0.327317 0.104475
0.192364 0.612383 0.250010
0.035404 0.562157 0.249074
2.044269 0.818918 0.199550
2.001223 0.848056 0.050231
2.017651 0.129320 0.202862
2.012521 0.233298 0.045845
0.348702 0.980684 0.173046
2.030091 0.839346 0.098504
2.033268 0.354557 0.077770
2.041484 0.819601 0.133527
2.016896 0.735843 0.177114
2.005133 0.350592 0.093012
2.030378 0.211665 0.125291
2.051344 0.818365 0.128576
2.023131 0.039322 0.115082
2.015030 0.096685 0.090606
2.042048 0.398850 0.188016
0.474616 0.909939 0.241426
2.022922 0.372593 0.103430
2.023228 0.730447 0.214347
2.016049 0.756633 0.040487
2.020701 0.649097 0.095229
2.010562 0.904400 0.171377
0.050915 0.992115 0.222413
1.353240 0.500007 0.069642
0.099823 0.043129 0.005851
1.804479 0.260630 0.212144
2.032231 0.932595 0.160442
2.006229 0.058657 0.123712
2.029796 0.721484 0.189331
1.631253 0.918413 0.027455
2.022575 0.188149 0.135854
2.017201 0.681083 0.191017
2.023163 0.803616 0.100864
2.016357 0.106732 0.037931
1.744027 0.134032 0.223241
0.008542 0.505593 0.221966
2.015481 0.887887 0.167531
2.012309 0.059204 0.149143
2.024290 0.352007 0.073397
2.044852 0.258797 0.047845
2.004841 0.367351 0.200467
2.018896 0.681016 0.127061
0.786491 0.988928 0.101549
0.906994 0.476225 0.233841
2.018782 0.639498 0.119193
2.033252 0.732225 0.044826
2.006809 0.305431 0.041686
2.020581 0.271387 0.143559
2.029636 0.772421 0.161292
1.021671 0.983468 0.191997
0.825618 0.013112 0.100670
2.030579 0.775512 0.178289
2.041007 0.276005 0.046258
2.000271 0.289912 0.039032
2.030297 0.105648 0.171593
2.008805 0.883220 0.211431
2.007401 0.237211 0.132114
2.043957 0.792899 0.145899
1.685428 0.966558 0.087545
1.568353 0.971494 0.173970
1.236585 0.021695 0.163305
1.840756 0.362741 0.033953
0.035733 0.566555 0.249728
1.453797 0.773486 0.226762
2.031014 0.717976 0.184907
1.738273 0.959014 0.176335
2.015580 0.844944 0.092940
2.035106 0.799893 0.114166
1.737460 0.116452 0.224219
2.022126 0.726487 0.178634
2.027879 0.840318 0.184213
2.017479 0.630500 0.093234
1.744167 0.039810 0.167332
0.716859 0.029759 0.168172
0.038174 0.987073 0.128691
2.017105 0.149523 0.065801
2.002765 0.755692 0.135449
1.970062 0.723998 0.215208
2.024452 0.367358 0.155246
2.029788 0.686933 0.179488
0.065641 0.987501 0.007571
2.043170 0.614473 0.123196
2.022747 0.721939 0.186483
2.054804 0.758295 0.109029
2.041637 0.681193 0.088195
1.965635 0.874412 0.042166
2.000926 0.300494 0.207650
1.922447 0.946005 0.173351
0.302067 0.024023 0.080753
2.026112 0.916278 0.087320
2.030630 0.922772 0.068881
0.038271 0.988938 0.137797
2.043955 0.337547 0.127159
0.943074 0.853696 0.237972
2.014167 0.830135 0.092786
2.021179 0.297030 0.060840
2.006074 0.222603 0.150129
2.012553 0.718654 0.076826
0.181628 0.879698 0.246322
2.014067 0.221852 0.075742
2.022074 0.220839 0.125137
1.541900 0.028721 0.157507
2.024098 0.190148 0.166427
2.000155 0.115994 0.036692
2.031926 0.750208 0.100893
2.032816 0.780082 0.070591
0.859468 0.923069 0.018972
2.036882 0.229357 0.050515
1.021292 0.016950 0.192170
2.032852 0.230892 0.118425
0.195381 0.165181 0.228122
2.019598 0.843053 0.176573
2.016902 0.101517 0.145640
0.748491 0.467699 0.242099
2.045287 0.712677 0.129932
2.035427 0.694947 0.126864
2.048916 0.864810 0.125488
2.001647 0.913888 0.124021
1.870851 0.091273 0.042052
2.035264 0.224157 0.103852
2.025508 0.345656 0.154944
2.035546 0.726023 0.059531
2.008734 0.276993 0.174787
0.179517 0.027788 0.024031
2.014314 0.785718 0.158959
2.022817 0.412694 0.057546
1.767939 0.116389 0.025079
2.027677 0.625261 0.106097
2.002812 0.754347 0.144586
1.872984 0.043172 0.127650
2.012800 0.666294 0.074063
0.895784 0.580046 0.014684
1.185142 0.010708 0.097021
2.001944 0.360681 0.203661
2.009621 0.190728 0.054982
0.040646 0.704786 0.241464
0.906784 0.695403 0.014239
2.037639 0.183166 0.137945
1.879308 0.052738 0.168671
0.570427 0.971612 0.215893
2.030415 0.333994 0.097299
1.969586 0.638857 0.036420
2.021489 0.647323 0.134533
1.414029 0.956826 0.207840
1.222695 0.065843 0.020527
2.012652 0.670691 0.207114
2.017824 0.348008 0.065318
2.038313 0.328636 0.190803
2.017192 0.772864 0.111412
1.266734 0.502009 0.055431
2.022265 0.669826 0.040038
0.697235 0.984560 0.159910
1.789525 0.101725 0.213045
1.499764 0.122556 0.024570
2.022459 0.678012 0.204441
2.005690 0.712882 0.141472
1.141756 0.993187 0.143940
1.978355 0.953432 0.116917
2.019636 0.910267 0.135929
1.444461 0.213444 0.228395
2.006319 0.572720 0.097924
0.034904 0.996408 0.048788
0.375224 0.795862 0.005473
0.524403 0.627150 0.212029
2.007652 0.682386 0.138880
0.425430 0.621511 0.239189
2.005989 0.126293 0.114610
2.008474 0.747795 0.153841
2.001298 0.857592 0.150809
2.025124 0.119820 0.148109
0.763681 0.364810 0.013206
2.039586 0.412706 0.106171
2.024485 0.316321 0.073033
1.125692 0.882263 0.233364
2.013345 0.882962 0.090390
0.036318 0.188341 0.014064
2.015784 0.275097 0.093220
2.010821 0.308547 0.173000
2.033909 0.289244 0.112282
2.042875 0.331086 0.077792
2.039336 0.339690 0.068817
2.034917 0.195737 0.108191
2.013953 0.922460 0.103780
2.027577 0.749487 0.077519
2.000638 0.887062 0.082849
2.043238 0.860607 0.086299
2.022557 0.107515 0.035134
2.012521 0.933139 0.107317
2.021264 0.348509 0.201991
1.921521 0.175523 0.030616
2.036560 0.107947 0.066608
0.099675 0.963990 0.239446
2.018576 0.840891 0.076544
1.673010 0.807255 0.030245
2.025381 0.883073 0.216368
2.003428 0.277166 0.164066
2.040073 0.728954 0.132857
1.120638 0.243143 0.219776
1.392446 0.043278 0.034060
2.013732 0.699957 0.037390
2.038919 0.091718 0.151174
2.007386 0.174686 0.037130
2.010286 0.565693 0.109033
0.953510 0.424289 0.227765
1.542025 0.661626 0.182982
2.010992 0.147421 0.096275
2.023444 0.832276 0.209149
2.038118 0.748146 0.141266
2.007447 0.660923 0.215475
2.007343 0.252245 0.045028
2.038461 0.336184 0.102265
2.032140 0.948573 0.123652
1.552184 0.090512 0.029388
1.926973 0.933525 0.071277
2.036578 0.240857 0.056613
0.939074 0.441693 0.016972
2.019009 0.931509 0.079621
2.026656 0.128085 0.135971
2.011742 0.078111 0.152927
0.058669 0.509950 0.232796
2.005825 0.296214 0.042500
1.395921 0.162716 0.233730
2.020640 0.930446 0.117839
2.012230 0.680055 0.167305
2.024435 0.735181 0.039485
2.025570 0.769084 0.186028
2.012501 0.643426 0.035387
0.682612 0.985772 0.197287
0.039954 0.426786 0.016050
2.002534 0.716035 0.146029
0.029746 0.373464 0.240658
1.534199 0.043409 0.038243
2.028122 0.221336 0.119898
2.000288 0.313538 0.179206
0.012919 0.514219 0.241273
0.925683 0.326749 0.230269
0.966448 0.023155 0.042146
2.023364 0.091646 0.073414
0.007811 0.605221 -0.000325
2.022095 0.088833 0.073625
1.991287 0.608067 0.043634
2.028521 0.663280 0.028983
0.011431 0.278549 0.236262
2.048770 0.749451 0.090866
2.029164 0.787634 0.187305
1.707779 0.608749 0.038454
2.001214 0.102727 0.166548
1.293350 0.981391 0.065275
0.580828 0.128587 0.025986
2.016937 0.339622 0.074967
0.018953 0.890552 0.250145
2.000588 0.799573 0.125313
2.018788 0.585346 0.066433
2.010143 0.602290 0.201903
2.028930 0.271324 0.174884
2.010875 0.104483 0.044686
0.248546 0.982089 0.216905
2.026492 0.348990 0.140628
1.558057 0.933489 0.226761
2.033815 0.595950 0.076129
0.239307 0.010082 0.208796
2.031101 0.930411 0.137363
2.004660 0.865858 0.205160
1.990404 0.901647 0.043340
2.025588 0.792722 0.125310
2.036936 0.079405 0.138733
1.247281 0.974830 0.204954
2.006244 0.790524 0.087015
0.729957 0.024013 0.040416
0.576581 0.020283 0.164097
1.306094 0.276874 0.065336
0.017031 0.747224 0.010947
2.007610 0.172173 0.078813
2.007702 0.234239 0.216311
1.275645 0.490612 0.056742
0.533651 0.533490 0.229030
2.020352 0.301361 0.168629
1.923417 0.877203 0.035767
2.054257 0.245705 0.112442
1.123636 0.484609 0.106526
2.005327 0.901170 0.181384
1.907161 0.129483 0.215763
2.014286 0.350295 0.187820
2.016464 0.939830 0.139259
2.040402 0.096788 0.101012
2.001294 0.107314 0.184666
0.812862 0.029428 0.213923
2.038295 0.102904 0.177095
2.025195 0.408903 0.144709
1.562514 0.972575 0.088031
2.020001 0.799353 0.160508
2.012249 0.715509 0.135389
0.938304 0.991906 0.090947
0.034259 -0.000089 0.183998
2.032238 0.901429 0.052711
0.649186 0.482397 0.008567
2.047931 0.313367 0.104281
2.023425 0.371297 0.189176
2.033696 0.125638 0.135117
1.851775 0.680794 0.028361
2.009439 0.111121 0.210674
0.149087 0.986320 0.021181
2.001362 0.282336 0.081177
1.578869 0.283615 0.220186
2.016776 0.724579 0.168284
0.014242 0.012155 0.084275
2.007751 0.161367 0.097244
0.336469 0.958898 0.016802
2.021828 0.925834 0.076102
1.724165 0.080777 0.208416
2.012108 0.659642 0.207532
2.023007 0.116935 0.149028
2.001221 0.669073 0.192203
2.049318 0.245117 0.121517
1.867296 0.399611 0.210151
2.014259 0.206345 0.053412
1.880640 0.058882 0.173410
0.425484 0.989059 0.168826
2.017891 0.273142 0.089601
1.539168 0.051519 0.032571
2.001818 0.350240 0.144337
2.018226 0.826991 0.177203
1.291487 0.506320 0.190768
2.040798 0.271093 0.087862
2.039047 0.789668 0.048091
0.959086 0.066862 0.018607
1.524057 0.936757 0.219652
2.010548 0.695931 0.089083
2.015575 0.353923 0.199898
2.014640 0.582777 0.057398
2.024173 0.282589 0.075697
1.836064 0.708749 0.226022
2.025903 0.091580 0.162508
2.039833 0.740614 0.110457
2.045441 0.386358 0.068500
1.125608 0.018716 0.194635
2.035768 0.751377 0.149175
2.021132 0.167951 0.105210
2.030107 0.426089 0.134212
0.909935 0.603999 0.016282
2.017631 0.345764 0.201357
2.033975 0.332578 0.095046
2.024310 0.858399 0.143123
1.537060 0.234754 0.025419
2.036353 0.070023 0.119429
2.006043 0.826376 0.044697
2.033033 0.715423 0.127692
2.040083 0.091923 0.085418
2.023243 0.436303 0.110260
2.038732 0.267869 0.046259
2.022422 0.186151 0.198259
2.029531 0.103716 0.205389
2.015052 0.920555 0.112129
0.339597 0.617606 0.002824
0.170548 0.684536 0.247333
2.017961 0.096528 0.184175
2.003892 0.262647 0.030832
2.024277 0.380779 0.080066
0.530010 0.643858 0.012548
2.000152 0.715168 0.043558
1.885371 0.287811 0.220042
2.019767 0.325567 0.131726
2.010451 0.114133 0.153634
2.014853 0.372002 0.213192
0.661337 0.023267 0.039685
2.018938 0.868010 0.039757
2.008738 0.657800 0.178482
0.041377 0.572632 0.013807
1.108781 0.754053 0.224450
1.715585 0.035021 0.162208
1.595080 0.054033 0.214368
2.024197 0.296343 0.159639
1.639982 0.767113 0.022059
2.003979 0.189402 0.181230
0.047646 0.852974 -0.000133
1.818476 0.865441 0.221540
0.322141 0.953560 0.011563
0.150099 0.004017 0.208255
2.007821 0.839730 0.099613
2.028238 0.101937 0.203735
0.028233 0.374822 0.239246
1.911233 0.887553 0.036984
2.033046 0.667468 0.200239
1.355342 0.506015 0.127346
0.063994 0.939969 0.002740
2.017117 0.290534 0.208101
0.018098 0.388578 0.245573
2.042207 0.866436 0.076275
1.542230 0.963615 0.051991
2.005977 0.763890 0.090744
1.270791 0.496458 0.055678
1.477794 0.967258 0.051738
2.019777 0.409893 0.057595
2.007231 0.605300 0.202884
2.003610 0.932416 0.091151
2.013677 0.949706 0.108499
0.874363 0.981548 0.071906
0.795922 0.013437 0.056288
1.318017 0.019297 0.177958
2.019279 0.075744 0.157400
2.007864 0.166258 0.184835
2.007855 0.119610 0.200900
2.033492 0.829768 0.188287
2.009141 0.738372 0.125480
</DataArray>
</Points>
<PointData>
<DataArray NumberOfComponents='1' type='Int32' Name='ParticleType' format='ascii'>
1
1
1
1
1
1
1
1
1
1
1
1
1
1
1
1
1
1
1
1
1
1
1
1
1
1
1
1
1
1
1
1
1
1
1
1
1
1
1
1
1
1
1
1
1
1
1
1
1
1
1
1
1
1
1
1
1
1
1
1
1
1
1
1
1
1
1
1
1
1
1
1
1
1
1
1
1
1
1
1
1
1
1
1
1
1
1
1
1
1
1
1
1
1
1
1
1
1
1
1
1
1
1
1
1
1
1
1
1
1
1
1
1
1
1
1
1
1
1
1
1
1
1
1
1
1
1
1
1
1
1
1
1
1
1
1
1
1
1
1
1
1
1
1
1
1
1
1
1
1
1
1
1
1
1
1
1
1
1
1
1
1
1
1
1
1
1
1
1
1
1
1
1
1
1
1
1
1
1
1
1
1
1
1
1
1
1
1
1
1
1
1
1
1
1
1
1
1
1
1
1
1
1
1
1
1
1
1
1
1
1
1
1
1
1
1
1
1
1
1
1
1
1
1
1
1
1
1
1
1
1
1
1
1
1
1
1
1
1
1
1
1
1
1
1
1
1
1
1
1
1
1
1
1
1
1
1
1
1
1
1
1
1
1
1
1
1
1
1
1
1
1
1
1
1
1
1
1
1
1
1
1
1
1
1
1
1
1
1
1
1
1
1
1
1
1
1
1
1
1
1
1
1
1
1
1
1
1
1
1
1
1
1
1
1
1
1
1
1
1
1
1
1
1
1
1
1
1
1
1
1
1
1
1
1
1
1
1
1
1
1
1
1
1
1
1
1
1
1
1
1
1
1
1
1
1
1
1
1
1
1
1
1
1
1
1
1
1
1
1
1
1
1
1
1
1
1
1
1
1
1
1
1
1
1
1
1
1
1
1
1
1
1
1
1
1
1
1
1
1
1
1
1
1
1
1
1
1
1
1
1
1
1
1
1
1
1
1
1
1
1
1
1
1
1
1
1
1
1
1
1
1
1
1
1
1
1
1
1
1
1
1
1
1
1
1
1
1
1
1
1
1
1
1
1
1
1
1
1
1
1
1
1
1
1
1
1
1
1
1
1
1
1
1
1
1
1
1
1
1
1
1
1
1
1
1
1
1
1
1
1
1
1
1
1
1
1
1
1
1
</DataArray>
<DataArray NumberOfComponents='1' type='Int32' Name='ParticleID' format='ascii'>
0
1
2
3
4
5
6
7
8
9
10
11
12
13
14
15
16
17
18
19
20
21
22
23
24
25
26
27
28
29
30
31
32
33
34
35
36
37
38
39
40
41
42
43
44
45
46
47
48
49
50
51
52
53
54
55
56
57
58
59
60
61
62
63
64
65
66
67
68
69
70
71
72
73
74
75
76
77
78
79
80
81
82
83
84
85
86
87
88
89
90
91
92
93
94
95
96
97
98
99
100
101
102
103
104
105
106
107
108
109
110
111
112
113
114
115
116
117
118
119
120
121
122
123
124
125
126
127
128
129
130
131
132
133
134
135
136
137
138
139
140
141
142
143
144
145
146
147
148
149
150
151
152
153
154
155
156
157
158
159
160
161
162
163
164
165
166
167
168
169
170
171
172
173
174
175
176
177
178
179
180
181
182
183
184
185
186
187
188
189
190
191
192
193
194
195
196
197
198
199
200
201
202
203
204
205
206
207
208
209
210
211
212
213
214
215
216
217
218
219
220
221
222
223
224
225
226
227
228
229
230
231
232
233
234
235
236
237
238
239
240
241
242
243
244
245
246
247
248
249
250
251
252
253
254
255
256
257
258
259
260
261
262
263
264
265
266
267
268
269
270
271
272
273
274
275
276
277
278
279
280
281
282
283
284
285
286
287
288
289
290
291
292
293
294
295
296
297
298
299
300
301
302
303
304
305
306
307
308
309
310
311
312
313
314
315
316
317
318
319
320
321
322
323
324
325
326
327
328
329
330
331
332
333
334
335
336
337
338
339
340
341
342
343
344
345
346
347
348
349
350
351
352
353
354
355
356
357
358
359
360
361
362
363
364
365
366
367
368
369
370
371
372
373
374
375
376
377
378
379
380
381
382
383
384
385
386
387
388
389
390
391
392
393
394
395
396
397
398
399
400
401
402
403
404
405
406
407
408
409
410
411
412
413
414
415
416
417
418
419
420
421
422
423
424
425
426
427
428
429
430
431
432
433
434
435
436
437
438
439
440
441
442
443
444
445
446
447
448
449
450
451
452
453
454
455
456
457
458
459
460
461
462
463
464
465
466
467
468
469
470
471
472
473
474
475
476
477
478
479
480
481
482
483
484
485
486
487
488
489
490
491
492
493
494
495
496
497
498
499
</DataArray>
<DataArray NumberOfComponents='1' type='Int8' Name='IsActive' format='ascii'>
1
0
1
0
0
1
0
0
1
1
1
1
1
1
1
0
0
0
1
0
0
1
0
1
0
0
1
0
1
1
0
1
1
0
1
0
0
0
0
0
1
1
1
1
0
1
1
0
0
0
0
1
0
1
1
0
1
1
0
1
1
0
1
0
0
1
1
0
1
0
0
1
1
0
1
1
0
0
0
0
1
0
0
0
0
1
1
0
0
0
1
0
0
0
0
0
1
0
0
0
0
1
0
0
0
0
0
0
0
1
0
0
1
0
0
0
0
0
1
1
1
1
0
0
0
1
0
0
0
0
1
1
0
0
0
0
0
0
1
1
0
0
0
0
0
1
1
0
0
0
0
0
0
0
1
1
1
1
1
1
0
1
0
0
1
0
0
0
1
1
1
0
0
1
0
0
1
0
0
0
0
1
0
1
1
0
0
1
0
1
0
0
0
0
1
0
0
1
0
1
0
0
1
0
1
0
1
0
0
1
0
0
0
0
1
0
0
0
0
1
0
0
1
0
0
1
0
1
1
0
0
1
1
0
1
1
0
1
0
1
1
0
0
0
0
1
0
1
1
1
0
0
1
1
0
1
0
1
1
1
0
1
0
0
0
0
1
0
0
1
0
1
0
0
0
0
0
0
0
0
0
0
0
0
0
1
0
1
0
1
1
0
0
1
1
0
0
0
0
1
1
0
0
0
0
0
0
1
1
1
0
1
0
0
0
1
0
1
0
0
0
0
0
1
1
0
1
1
0
0
1
1
1
0
0
0
1
0
1
0
0
1
0
1
1
0
0
0
0
0
0
0
1
0
1
0
1
0
0
1
0
0
1
0
1
1
1
1
0
0
1
1
0
1
0
1
0
1
0
0
0
0
1
0
0
1
0
0
1
0
0
1
0
0
0
1
1
1
0
1
0
1
0
1
0
1
0
0
0
0
1
0
1
1
0
1
0
0
1
0
0
1
1
0
0
0
0
1
0
0
0
1
0
0
0
1
0
0
0
1
0
0
0
0
0
0
0
0
0
1
1
0
0
0
1
0
1
0
0
0
1
0
0
1
1
1
1
0
1
0
0
1
1
1
0
0
1
1
0
1
1
0
1
0
1
0
1
1
0
0
0
0
1
1
1
0
0
0
0
0
</DataArray>
<DataArray NumberOfComponents='1' type='Int32' Name='ParticleTetID' format='ascii'>
67496
-50400
49067
-69862
-102510
64722
-69112
-82730
83080
84306
90621
45652
32400
105766
-82225
-93293
-91090
-74058
94280
-98831
-12127
90296
-98411
3300
-93293
-102840
64871
-91191
100560
13735
-34180
26547
61613
-39168
9628
-81615
-69112
-42296
-100758
-96731
7576
46661
103514
35052
-90119
59217
94294
-93119
-79211
-82225
-90337
80251
-25302
47123
29099
-96944
4220
45015
-27681
105757
96534
-90337
20471
-57434
-90680
72893
27910
-27681
44137
-104925
-80727
12422
44344
-96019
80251
39289
-75610
-98411
-34180
-57434
32614
-57434
-89958
-42296
-102510
12203
51632
-50400
-98306
-69112
44205
-93293
-104802
-99907
-83399
-79063
99903
-90337
-79597
-82515
-90622
57237
-96019
-58762
-86274
-93119
-58762
-98765
-86274
-97395
-96731
-44272
65671
-24526
-82225
-92602
-87306
-96325
98699
13414
82439
34206
-74058
-98831
-39168
3139
-98765
-39168
-17626
-96893
56730
100092
-96325
-104925
-58762
-64130
-96944
-104802
88101
5695
-95998
-92602
-88016
-12127
-70156
97508
47354
-70156
-92373
-88016
-44138
-105710
-83215
-102510
56928
46058
91658
104770
99903
80810
-39168
89909
-96019
-17626
56730
-39168
-90337
-74393
72542
77549
97137
-87514
-102840
104235
-93819
-39168
99809
-96354
-39168
-102840
-91248
14742
-91090
89781
73336
-89958
-89958
97137
-96849
103228
-96019
-92373
-85990
-91248
95611
-69112
-83215
99395
-85990
-96893
-102840
-83820
42234
-64130
95894
-83215
103635
-90337
-98831
100667
-34180
-104802
-98210
-27681
62510
-69112
-98308
-91248
-61396
92108
-70156
-46315
32197
-74393
-102840
56441
-82524
38958
82639
-96944
-70433
69970
98374
-99021
103063
16493
-83399
69813
-104802
87757
85254
-81615
-58762
-98308
-102510
26802
-90231
14533
77424
53215
-82225
-34180
69289
11612
-27681
41530
-84540
99980
51311
22283
-104802
3269
-42296
-93119
-98210
-42296
87923
-90131
-83399
23573
-96019
85474
-94130
-91191
-25302
-83399
-58762
-99021
-79211
-98411
-48492
-96019
-96893
-79211
-96944
73394
-100353
93306
-96019
13380
-105710
-61396
-34180
38074
92803
-90680
-98831
-70433
-100422
35629
104674
-24687
-82730
-102840
-81615
-90622
-83399
-27681
73816
50754
-64130
13521
-89958
-42296
-104925
74716
-88016
16007
-27681
-57434
-92602
-94146
-90231
2510
74099
-34180
101063
79745
-83215
-91191
100092
73768
77429
-96731
-101355
-96731
104378
-90231
98826
-98411
-94146
61766
-44138
100034
98538
-58762
-71594
-17626
-25092
-78226
-61396
-96893
91618
-96849
4559
-25092
66943
-27681
-99052
15587
-17626
-98831
32945
-83820
65395
105750
58810
100743
-56272
-82325
46293
96003
-91191
32533
-83215
7538
-96325
24555
-98308
-43214
-98306
-44138
103848
-44138
-19405
77892
-70156
-34180
68541
-101044
-48492
26528
-94130
-98308
-42296
48951
-82515
101296
-94130
81074
-93119
101509
-24687
73259
-89958
101522
-81615
-42296
-42146
-83215
18959
-70433
103063
8604
-94130
89590
-99096
-69862
12552
-94130
-99911
100042
6610
-91248
-96944
-25092
-92373
55667
-104925
-102840
-24526
101267
-102840
-24687
-19405
104920
-96944
-83399
-98210
95439
-98831
-79597
-34180
-96731
-69914
-92373
-99721
-44138
-27681
53417
78397
-44138
-101289
-24526
6191
-90680
72462
-50400
-42296
-96944
72789
-105531
-42146
88021
18189
34707
20860
-95447
47715
-99721
-100561
40199
34844
100376
-96019
-44138
101063
50231
-42146
104180
99121
-91090
101063
-96019
32528
-98411
10755
85279
-46315
-78226
-79211
-79211
54872
74584
103681
-104925
-99721
-44138
-90337
-102840
</DataArray>
<DataArray NumberOfComponents='3' type='Float32' Name='vels' format='ascii'>
7.334952 -3.380883 0.005100
22.746117 0.571945 -0.290697
0.229150 0.000651 -0.000393
20.081773 -0.217840 -0.277921
23.484112 -0.510887 0.083072
12.197006 -0.108922 0.007545
20.333378 0.277334 -0.621174
12.783111 0.221707 0.073535
7.953370 -2.970281 -0.006662
8.992565 -2.077121 0.009492
16.308515 0.120496 -1.197842
1.220424 -0.003308 -0.003363
8.925607 -7.104864 -0.035439
1.011812 -0.350360 -0.000339
13.642843 -0.263199 -0.225210
20.644419 -0.244898 0.011251
14.087736 0.281257 1.252631
14.293141 1.904616 0.878634
13.766239 -2.437292 0.002667
19.044396 -1.244907 -0.238396
21.835456 0.067503 1.640637
5.663543 -0.072767 0.002696
20.051412 -0.328575 -0.076616
2.216991 0.004714 0.005635
18.297037 -0.214221 0.115799
22.591256 -0.226395 0.244628
7.137372 0.250792 -0.046072
21.418610 0.522880 0.667956
0.306730 0.044584 -0.027376
10.123947 0.045873 0.032695
22.058982 -0.221339 0.905368
6.745049 -0.763899 0.004678
9.370094 0.012080 -0.059704
19.420937 -0.419907 0.689956
9.514999 -0.173145 -0.027109
9.873437 -0.276749 0.223623
19.690416 0.183231 -1.354405
17.262796 -0.581290 -0.236368
13.020581 -0.450925 -1.719911
13.718675 -1.653544 -1.157650
11.745915 0.689384 -0.035915
4.098836 -1.188230 0.003263
2.302331 -0.110119 0.000929
5.745892 -0.153672 -0.077218
23.253517 -0.506630 -0.243077
18.005612 0.040496 -0.008159
-0.040443 0.011703 -0.002272
21.234953 -0.478901 -0.021576
16.783738 0.725048 0.022270
15.336051 -0.375124 2.450828
15.641460 0.592641 2.478244
0.086361 -0.027722 0.010393
23.583462 0.705706 0.031841
0.807303 -0.112123 0.055678
2.892497 -5.041310 0.156787
12.898903 0.342379 1.238865
14.605036 0.041839 0.062487
3.521566 0.598263 -0.003641
16.294222 1.334800 -0.294998
10.900377 0.446729 -0.077042
9.235727 0.987580 0.022283
15.971599 0.661878 2.362355
1.612971 0.000654 -0.006249
16.469972 -0.440812 0.460427
8.803361 -0.053175 -1.230980
0.609027 0.005514 -0.000167
5.252761 1.240753 -0.005658
16.358776 2.099030 -0.512324
8.220095 -0.321025 0.014331
12.106804 0.099396 -0.173926
20.829917 -0.376475 0.351593
9.429250 -0.197811 -0.008518
11.349827 -0.431465 0.030347
21.624399 0.251894 -0.102345
0.092201 0.007239 0.000295
9.709451 -6.339136 0.021476
18.270654 -0.489875 0.186874
16.029687 -0.488661 0.199500
22.453575 -0.519201 0.546982
20.858756 -0.561026 1.745228
13.289392 -1.813354 0.004878
22.318605 -0.637696 0.060034
12.451290 1.606906 -1.239628
17.872999 -0.508012 -0.210598
21.544261 -0.576351 -0.237666
3.754912 -1.075143 -0.000274
8.419785 -0.026459 0.062444
22.850020 0.504740 0.291769
16.743318 -0.167094 -0.066923
20.405083 0.175823 -1.416689
11.539126 -0.004378 0.013526
18.397170 2.312845 0.926571
22.928140 -0.721532 0.020940
1.092060 -0.057378 -0.099089
21.674624 0.629290 -1.020716
0.117633 0.000420 0.000014
0.065905 0.027419 0.016542
18.277976 1.459873 2.053854
15.193783 -0.200755 0.411678
8.382616 -1.056661 1.118900
9.911597 0.030293 -0.531683
4.197697 0.011244 0.018357
16.604183 0.954922 -1.554912
16.518350 0.455337 -2.328386
22.200797 0.725471 -0.532589
19.328759 -0.349707 0.354440
19.388330 0.531497 -1.176200
23.505890 -0.017541 0.011079
21.587448 0.974728 -0.641169
9.527705 -1.530749 -0.112747
16.482712 -1.531327 -0.673981
20.251569 0.364379 1.295825
2.230954 0.022415 -0.004703
22.036278 0.624905 -0.469285
14.124127 -0.284270 -0.217126
10.498283 -0.075992 -0.761585
21.786999 -0.601339 -0.143358
14.298232 0.925327 0.629781
0.301403 0.001060 -0.003152
6.560181 -0.008687 -0.161915
1.741777 -0.012842 -0.012818
12.677388 2.218313 -0.025818
14.099799 2.576252 1.169191
13.357897 -0.648771 -0.039844
17.437643 -0.326126 1.677305
10.029405 -1.074238 0.014788
23.130137 -0.019389 0.136113
16.798710 -0.409249 0.846982
21.975496 -0.398811 0.347033
11.426230 -1.001875 -1.211797
5.925373 0.741580 -0.000260
-0.171733 0.033050 -0.002387
17.775444 0.811653 0.366037
14.614608 -2.401172 0.802102
16.323602 0.461840 -1.527500
20.101702 0.219511 -1.888051
10.340887 0.260235 0.538024
23.078656 -0.988561 -0.027553
3.938376 0.024719 -0.005135
1.736172 -0.337345 0.007502
22.910553 -0.665074 -0.024346
15.478941 0.434950 -2.683764
3.843808 0.025786 -0.011749
23.086697 0.462772 0.127130
20.097993 -0.001831 0.998274
7.535168 0.128100 0.041541
4.817727 -0.057730 -0.069517
21.604291 0.016050 0.594368
20.440455 0.307652 -1.507826
3.309534 0.025848 -0.069147
16.746200 -1.534288 1.226030
10.253146 0.947459 1.119102
23.785807 0.531745 -0.031865
21.848852 0.420922 0.793156
22.682564 -2.382054 0.031161
10.508841 -0.375622 -0.011279
18.771290 -0.005427 0.015388
3.401620 0.421443 -0.002141
-0.085981 -0.002576 0.009978
17.528258 -4.277365 -0.021761
17.330247 -0.352344 1.789258
5.751982 -0.101285 0.022413
19.581049 0.422816 -0.371368
23.074533 -0.332614 -0.039117
17.894171 2.672465 -0.008924
16.564731 -0.331065 1.203524
19.095386 0.410807 1.106184
21.597133 -0.714607 0.164443
9.415014 0.385963 -0.056920
7.726038 -0.157297 0.021250
0.047258 -0.005844 0.001595
18.889380 -0.021748 0.028150
23.744358 -0.623742 0.078356
10.617375 -0.287425 -0.101892
21.550093 0.597724 0.177560
19.931805 -0.620684 -0.104144
0.393797 0.003765 -0.001227
22.186483 -0.580909 0.085191
18.532700 -0.364004 0.898198
22.731125 -0.410106 -0.267865
16.903104 -0.287756 -3.000994
11.712466 -0.071564 0.216999
14.810948 0.363075 0.196271
2.995775 -0.025743 -0.032070
1.680826 -0.007359 -0.000417
15.925088 1.660978 -1.064572
13.425174 2.439846 -1.661108
-0.117391 -0.000263 0.001558
22.474392 0.693944 0.051149
7.688074 2.284111 -0.014877
16.990761 0.499263 -0.526326
17.556272 0.387056 -1.088772
22.424382 0.267650 -0.125181
19.438241 -0.645570 0.307630
1.077622 0.006073 -0.000936
19.790404 0.145941 -0.245545
23.805036 0.246133 -0.090822
13.436523 0.483889 0.002631
17.974424 -0.188307 1.097113
11.220117 -0.667190 -0.338685
22.916248 -0.253452 -0.514480
18.818351 0.349067 -1.391396
6.045250 0.505919 -0.004858
15.899244 0.166904 -2.510908
7.696889 -0.140808 -0.033020
23.480659 0.156312 -0.174877
0.203139 -0.003231 0.000209
18.643998 0.568643 0.689326
18.384430 -0.878138 0.303210
2.172031 -0.067560 -0.000748
23.583081 -0.560089 0.024302
23.161558 -0.767744 -0.045548
20.291565 1.561776 -0.694303
16.401910 -0.321120 -0.053734
1.378684 0.056068 -0.002469
21.410000 0.626257 0.310330
18.442322 0.652253 -0.220620
17.690202 -0.279277 -2.290119
18.769647 0.377517 0.667154
0.577368 -0.001941 0.001045
17.750980 -0.020871 0.508239
17.540848 0.458101 -1.060460
12.935034 1.278257 -0.036734
20.417662 -0.645471 0.231195
23.602854 -0.615112 0.038929
10.677116 0.310892 0.013786
18.576584 -0.501876 -0.358508
2.235146 1.337210 -0.000822
6.825088 -0.019948 0.021349
13.702585 0.396953 0.289287
6.917325 -0.024386 0.013341
0.065768 -0.034356 0.011138
4.190084 3.146868 0.001975
21.328316 0.562810 0.238438
1.710799 0.007065 -0.017702
4.157690 0.030495 0.003383
22.195289 0.732663 -0.247530
10.379954 -0.449667 0.198495
22.344953 -0.609651 0.782143
2.544705 0.103969 0.023319
11.164503 0.041993 0.034109
15.872573 -0.624415 -0.376809
21.407858 0.824238 0.337188
17.297617 0.488402 2.433505
23.606339 -0.372745 -0.031862
2.664527 0.008037 -0.082120
13.166489 -0.210343 -1.750043
3.817621 0.029556 0.018461
10.011993 0.750283 -0.022359
15.144850 1.888075 0.017524
14.328609 -0.354769 1.438157
21.838368 -0.661170 -0.191753
4.819596 0.009391 0.011566
13.309486 -0.285190 -0.005612
15.580226 -0.323972 0.093963
15.085695 2.841382 0.000295
21.053992 -0.422851 0.024730
0.020766 0.001581 0.044724
1.881744 0.026401 -0.000026
11.798350 0.421282 0.001361
23.244983 -0.730652 -0.131282
3.878649 0.066872 0.000101
20.722970 -0.207133 -0.102217
22.750940 -0.531753 0.033055
20.545453 -0.083357 -0.102342
20.285490 -0.903266 0.046184
3.913235 -0.997916 0.001144
21.801124 0.497681 -0.757091
19.879728 0.548398 -0.714806
13.155576 0.940745 0.005488
18.274489 0.518023 -0.272507
-0.076826 -0.000495 -0.003621
22.049778 0.519534 -0.195881
19.783170 0.573937 0.196976
23.087101 0.531150 0.110178
20.744513 0.554739 -1.416790
18.689961 0.464014 -2.153891
22.952633 -0.348073 -0.012363
15.385875 1.081334 -0.018862
20.312842 -0.228192 -0.737240
18.555870 0.457150 -0.153506
18.423548 1.307541 -2.021391
10.524621 -1.063843 -1.645949
16.597472 0.870109 0.031602
13.153952 0.251382 1.635128
9.617633 0.461936 0.060720
15.862789 -1.859636 -1.900831
0.274823 0.000185 -0.000707
20.159521 0.339274 -0.414015
12.068864 -3.251501 0.033030
12.441263 0.840484 0.891875
21.204620 0.562607 -0.004813
21.937366 -0.464106 0.805875
13.380774 -3.168849 0.027785
9.284441 0.062269 -0.036607
19.470028 -0.491725 -0.239990