<VTKFile type='UnstructuredGrid' version='1.0' byte_order='LittleEndian' header_type='UInt64'>
<UnstructuredGrid>
<Piece NumberOfCells='500' NumberOfPoints='500'>
<Points>
<DataArray NumberOfComponents='3' type='Float32' Name='Position' format='ascii'>
1.499132 0.789217 0.227861
2.041913 0.322548 0.117272
0.326494 0.978023 0.221478
2.032789 0.817449 0.183718
2.006422 0.772777 0.106364
0.165589 0.192505 0.245900
2.021840 0.236634 0.075397
2.017995 0.818960 0.207017
1.520170 0.784051 0.225322
1.501855 0.861613 0.227807
1.730393 0.195567 0.036357
0.303807 0.006462 0.057963
1.316582 0.770206 0.221446
0.739798 0.224311 0.237816
1.846073 0.740255 0.215047
2.029884 0.896507 0.149988
2.019396 0.268186 0.204956
2.024177 0.929727 0.162309
1.311635 0.891284 0.219253
2.028493 0.103892 0.112536
2.053310 0.240382 0.149626
0.247879 0.106767 0.229233
2.013011 0.752185 0.079681
0.369671 0.991902 0.149975
2.010016 0.889759 0.129730
2.047684 0.745451 0.119795
1.276884 0.490687 0.096146
2.034071 0.303870 0.160488
0.043225 0.851839 0.002661
1.003910 0.956455 0.221934
2.049422 0.718082 0.151819
0.580327 0.303233 0.242704
1.109323 0.979187 0.187302
2.022542 0.715620 0.181877
1.659016 0.967991 0.130167
2.010632 0.639137 0.200410
2.032977 0.238094 0.074622
2.000648 0.118576 0.122908
1.895044 0.626671 0.045013
2.021349 0.083507 0.064647
1.376925 0.050282 0.217141
0.669956 0.272687 0.238841
0.411279 0.291405 0.007322
0.670065 0.036472 0.032395
2.007880 0.710244 0.115067
0.253162 0.525799 0.007638
0.027891 0.128868 0.020541
2.001995 0.747523 0.166309
2.009973 0.935019 0.106858
2.032963 0.684623 0.203324
2.034140 0.855777 0.176953
0.022512 0.668060 0.223621
2.008327 0.295468 0.130869
0.042706 0.851846 0.002221
0.935169 0.422479 0.226396
1.879756 0.330016 0.208244
0.969605 0.906539 0.231155
1.644604 0.341916 0.037276
2.020040 0.916381 0.117455
1.409918 0.027098 0.168466
1.620292 0.174687 0.026677
2.033928 0.852710 0.179680
0.248369 0.992575 0.194501
2.009942 0.676050 0.191148
2.019976 0.708230 0.042371
0.227899 0.724289 0.001344
1.551774 0.230608 0.029137
2.031539 0.915199 0.125560
1.773705 0.091027 0.204290
2.018562 0.097872 0.154440
2.032726 0.151930 0.157049
1.045014 0.255918 0.023475
1.502599 0.978941 0.115040
2.012379 0.857800 0.088540
0.041145 0.653081 0.242690
1.375715 0.792987 0.027917
2.006516 0.709664 0.056035
2.006612 0.733044 0.069206
2.032027 0.708061 0.156368
2.047422 0.659033 0.158041
0.520182 0.202857 0.213179
2.008623 0.671327 0.150335
1.910335 0.928490 0.069160
2.000212 0.119345 0.120454
2.027649 0.788814 0.122788
0.660569 0.239381 0.240021
0.952510 0.978102 0.187034
2.037782 0.301018 0.135393
2.000514 0.077327 0.105807
2.037639 0.231862 0.074891
1.026092 0.768459 0.020180
2.043692 0.901627 0.126913
2.041219 0.688146 0.137356
1.961740 0.215332 0.041031
2.033186 0.327317 0.104475
0.192364 0.612383 0.250010
0.032874 0.561112 0.248980
2.044269 0.818918 0.199550
2.001223 0.848056 0.050231
1.930092 0.132451 0.200757
2.012521 0.233298 0.045845
0.261191 0.980027 0.172863
2.030091 0.839346 0.098504
2.033268 0.354557 0.077770
2.041484 0.819601 0.133527
2.016896 0.735843 0.177114
2.005133 0.350592 0.093012
2.030378 0.211665 0.125291
2.051344 0.818365 0.128576
1.802145 0.040529 0.114669
2.015030 0.096685 0.090606
2.042048 0.398850 0.188016
0.428630 0.909794 0.241381
2.022922 0.372593 0.103430
1.866940 0.737612 0.215008
2.016049 0.756633 0.040487
2.020701 0.649097 0.095229
2.010562 0.904400 0.171377
0.045715 0.993326 0.222520
1.270595 0.499607 0.073294
0.087048 0.043063 0.006206
1.753337 0.249973 0.212522
2.032231 0.932595 0.160442
1.939836 0.060144 0.124005
2.029796 0.721484 0.189331
1.311691 0.939215 0.027208
2.022575 0.188149 0.135854
2.017201 0.681083 0.191017
2.023163 0.803616 0.100864
1.818334 0.103647 0.039468
1.533599 0.101912 0.223782
0.009869 0.505147 0.222566
2.015481 0.887887 0.167531
2.012309 0.059204 0.149143
2.024290 0.352007 0.073397
2.044852 0.258797 0.047845
2.004841 0.367351 0.200467
2.018896 0.681016 0.127061
0.669925 0.985234 0.101557
0.857339 0.483121 0.233959
2.018782 0.639498 0.119193
2.033252 0.732225 0.044826
2.006809 0.305431 0.041686
2.020581 0.271387 0.143559
2.029636 0.772421 0.161292
0.872591 0.979765 0.191286
0.710972 0.015596 0.100992
2.030579 0.775512 0.178289
2.041007 0.276005 0.046258
2.000271 0.289912 0.039032
2.030297 0.105648 0.171593
1.908914 0.879633 0.206598
2.007401 0.237211 0.132114
2.043957 0.792899 0.145899
1.423779 0.978306 0.087133
1.302251 0.976444 0.175900
0.954800 0.027623 0.162526
1.663713 0.314226 0.033622
0.037137 0.567185 0.249128
1.232897 0.778126 0.226178
2.031014 0.717976 0.184907
1.516788 0.968239 0.176732
2.015580 0.844944 0.092940
2.035106 0.799893 0.114166
1.521121 0.087614 0.224998
2.022126 0.726487 0.178634
2.027879 0.840318 0.184213
2.017479 0.630500 0.093234
1.519217 0.030011 0.168646
0.575745 0.030198 0.167740
0.038917 0.987377 0.128873
2.017105 0.149523 0.065801
2.002765 0.755692 0.135449
1.755820 0.748542 0.216655
2.024452 0.367358 0.155246
2.029788 0.686933 0.179488
0.055736 0.986170 0.007252
2.043170 0.614473 0.123196
2.022747 0.721939 0.186483
2.054804 0.758295 0.109029
2.041637 0.681193 0.088195
1.712911 0.891007 0.041530
2.000926 0.300494 0.207650
1.742226 0.951449 0.174404
0.233053 0.023132 0.080863
2.026112 0.916278 0.087320
2.030630 0.922772 0.068881
0.038891 0.989310 0.137729
2.043955 0.337547 0.127159
0.814872 0.820672 0.237263
2.014167 0.830135 0.092786
2.021179 0.297030 0.060840
2.006074 0.222603 0.150129
2.012553 0.718654 0.076826
0.158884 0.880237 0.245986
2.014067 0.221852 0.075742
2.022074 0.220839 0.125137
1.273529 0.025384 0.157991
2.024098 0.190148 0.166427
1.774743 0.108648 0.036437
2.031926 0.750208 0.100893
2.032816 0.780082 0.070591
0.734286 0.911511 0.019535
2.036882 0.229357 0.050515
0.845162 0.024841 0.192367
2.032852 0.230892 0.118425
0.071156 0.164990 0.226615
2.019598 0.843053 0.176573
2.016902 0.101517 0.145640
0.639587 0.472882 0.242002
2.045287 0.712677 0.129932
2.035427 0.694947 0.126864
2.048916 0.864810 0.125488
2.001647 0.913888 0.124021
1.704309 0.078290 0.041608
2.035264 0.224157 0.103852
2.025508 0.345656 0.154944
2.035546 0.726023 0.059531
2.008734 0.276993 0.174787
0.153010 0.027930 0.023674
2.014314 0.785718 0.158959
2.022817 0.412694 0.057546
1.519962 0.086724 0.024471
2.027677 0.625261 0.106097
2.002812 0.754347 0.144586
1.661580 0.036016 0.127557
2.012800 0.666294 0.074063
0.833335 0.554943 0.014949
0.984108 0.014974 0.097255
2.001944 0.360681 0.203661
2.009621 0.190728 0.054982
0.041180 0.705979 0.241733
0.800472 0.637069 0.015167
2.037639 0.183166 0.137945
1.732101 0.048056 0.169319
0.487412 0.970515 0.215491
2.030415 0.333994 0.097299
1.756018 0.663455 0.034471
2.021489 0.647323 0.134533
1.151407 0.957285 0.207772
0.996772 0.073632 0.020250
1.972848 0.672352 0.207972
2.017824 0.348008 0.065318
2.038313 0.328636 0.190803
2.017192 0.772864 0.111412
1.215035 0.502174 0.054995
2.022265 0.669826 0.040038
0.593777 0.981867 0.159274
1.508654 0.072409 0.212895
1.168732 0.113157 0.024710
2.022459 0.678012 0.204441
2.005690 0.712882 0.141472
1.053918 0.993595 0.143866
1.749743 0.959515 0.115874
2.019636 0.910267 0.135929
1.172163 0.203675 0.228923
2.006319 0.572720 0.097924
0.033842 0.995735 0.047619
0.337286 0.795702 0.005530
0.270378 0.623711 0.211684
2.007652 0.682386 0.138880
0.346372 0.619347 0.238909
2.005989 0.126293 0.114610
2.008474 0.747795 0.153841
2.001298 0.857592 0.150809
2.025124 0.119820 0.148109
0.667239 0.381102 0.012976
2.039586 0.412706 0.106171
2.024485 0.316321 0.073033
0.947482 0.855620 0.234070
2.013345 0.882962 0.090390
0.036737 0.188793 0.013908
2.015784 0.275097 0.093220
2.010821 0.308547 0.173000
2.033909 0.289244 0.112282
2.042875 0.331086 0.077792
2.039336 0.339690 0.068817
2.034917 0.195737 0.108191
2.013953 0.922460 0.103780
2.027577 0.749487 0.077519
2.000638 0.887062 0.082849
2.043238 0.860607 0.086299
1.815054 0.104955 0.038741
2.012521 0.933139 0.107317
2.021264 0.348509 0.201991
1.723184 0.154585 0.029427
2.036560 0.107947 0.066608
0.095395 0.964136 0.239633
2.018576 0.840891 0.076544
1.357959 0.867539 0.030950
1.814461 0.885063 0.211602
2.003428 0.277166 0.164066
2.040073 0.728954 0.132857
0.986493 0.359505 0.215296
1.120889 0.043103 0.034087
2.013732 0.699957 0.037390
2.038919 0.091718 0.151174
1.905508 0.174950 0.039091
2.010286 0.565693 0.109033
0.920868 0.450979 0.227458
1.268349 0.711879 0.179448
2.010992 0.147421 0.096275
2.023444 0.832276 0.209149
2.038118 0.748146 0.141266
1.899062 0.665553 0.215065
2.007343 0.252245 0.045028
2.038461 0.336184 0.102265
1.838478 0.953615 0.123894
1.242364 0.077999 0.028498
1.774276 0.938244 0.070559
2.036578 0.240857 0.056613
0.902735 0.462231 0.016847
1.882800 0.930554 0.081614
2.026656 0.128085 0.135971
2.011742 0.078111 0.152927
0.013782 0.509959 0.234556
2.005825 0.296214 0.042500
1.154211 0.160992 0.233540
2.020640 0.930446 0.117839
2.012230 0.680055 0.167305
2.024435 0.735181 0.039485
2.025570 0.769084 0.186028
1.839679 0.652849 0.035139
0.557123 0.982863 0.197429
0.039550 0.426453 0.016300
2.002534 0.716035 0.146029
0.029868 0.372877 0.240458
1.262435 0.038059 0.037032
2.028122 0.221336 0.119898
2.000288 0.313538 0.179206
0.013475 0.514308 0.241993
0.851674 0.384683 0.229448
0.823541 0.028080 0.042557
2.023364 0.091646 0.073414
0.007811 0.605221 -0.000325
2.022095 0.088833 0.073625
1.770763 0.628669 0.042421
1.815148 0.678509 0.032112
0.011167 0.278902 0.236205
2.048770 0.749451 0.090866
2.029164 0.787634 0.187305
1.567879 0.693416 0.038191
2.001214 0.102727 0.166548
1.056058 0.979388 0.065342
0.417520 0.132799 0.026304
2.016937 0.339622 0.074967
0.018953 0.890552 0.250145
2.000588 0.799573 0.125313
2.018788 0.585346 0.066433
1.872055 0.606870 0.202340
2.028930 0.271324 0.174884
1.889241 0.104649 0.045077
0.207575 0.982298 0.217035
2.026492 0.348990 0.140628
1.264459 0.945921 0.226660
2.033815 0.595950 0.076129
0.221803 0.010262 0.208366
2.031101 0.930411 0.137363
2.004660 0.865858 0.205160
1.770638 0.909165 0.043727
2.025588 0.792722 0.125310
2.036936 0.079405 0.138733
1.001931 0.970876 0.204695
2.006244 0.790524 0.087015
0.634564 0.025713 0.040452
0.574263 0.019839 0.163368
1.100532 0.269037 0.064102
0.018450 0.746858 0.010684
2.007610 0.172173 0.078813
1.917658 0.232998 0.214105
1.224668 0.491702 0.056536
0.394205 0.532288 0.229662
2.020352 0.301361 0.168629
1.683729 0.897121 0.035710
2.054257 0.245705 0.112442
1.073385 0.474930 0.106506
2.005327 0.901170 0.181384
1.677843 0.108455 0.215408
2.014286 0.350295 0.187820
2.016464 0.939830 0.139259
2.040402 0.096788 0.101012
2.001294 0.107314 0.184666
0.712570 0.032096 0.213270
2.038295 0.102904 0.177095
2.025195 0.408903 0.144709
1.293019 0.977086 0.087054
2.020001 0.799353 0.160508
2.012249 0.715509 0.135389
0.823460 0.986054 0.092664
0.034259 -0.000089 0.183998
2.032238 0.901429 0.052711
0.597991 0.482564 0.007745
2.047931 0.313367 0.104281
2.023425 0.371297 0.189176
2.033696 0.125638 0.135117
1.637788 0.741060 0.029082
1.805595 0.105795 0.211480
0.127671 0.986228 0.020750
2.001362 0.282336 0.081177
1.264524 0.227610 0.220568
2.016776 0.724579 0.168284
0.014097 0.012908 0.084307
2.007751 0.161367 0.097244
0.284945 0.958318 0.016499
2.021828 0.925834 0.076102
1.589801 0.068252 0.208713
2.012108 0.659642 0.207532
2.023007 0.116935 0.149028
2.001221 0.669073 0.192203
2.049318 0.245117 0.121517
1.662658 0.352105 0.210526
2.014259 0.206345 0.053412
1.734698 0.053527 0.174452
0.377622 0.989834 0.169568
2.017891 0.273142 0.089601
1.258807 0.045453 0.032899
2.001818 0.350240 0.144337
2.018226 0.826991 0.177203
1.237324 0.508826 0.189806
2.040798 0.271093 0.087862
2.039047 0.789668 0.048091
0.798730 0.082195 0.018845
1.276061 0.943748 0.220867
2.010548 0.695931 0.089083
2.015575 0.353923 0.199898
2.014640 0.582777 0.057398
2.024173 0.282589 0.075697
1.667922 0.749992 0.225777
2.025903 0.091580 0.162508
2.039833 0.740614 0.110457
2.045441 0.386358 0.068500
0.911385 0.025558 0.195130
2.035768 0.751377 0.149175
2.021132 0.167951 0.105210
2.030107 0.426089 0.134212
0.873090 0.579130 0.016593
2.017631 0.345764 0.201357
2.033975 0.332578 0.095046
2.024310 0.858399 0.143123
1.221196 0.199933 0.025056
2.036353 0.070023 0.119429
2.006043 0.826376 0.044697
2.033033 0.715423 0.127692
2.040083 0.091923 0.085418
2.023243 0.436303 0.110260
2.038732 0.267869 0.046259
2.022422 0.186151 0.198259
2.029531 0.103716 0.205389
2.015052 0.920555 0.112129
0.310517 0.617011 0.003144
0.114539 0.685230 0.247333
2.017961 0.096528 0.184175
1.808382 0.245680 0.030980
2.024277 0.380779 0.080066
0.417026 0.640556 0.012114
2.000152 0.715168 0.043558
1.708318 0.256975 0.221045
2.019767 0.325567 0.131726
2.010451 0.114133 0.153634
1.856872 0.363918 0.211154
0.592199 0.024322 0.040196
2.018938 0.868010 0.039757
2.008738 0.657800 0.178482
0.040876 0.572968 0.014147
0.986420 0.651223 0.221186
1.518701 0.027465 0.163113
1.414704 0.048306 0.214235
2.024197 0.296343 0.159639
1.428459 0.832458 0.021646
2.003979 0.189402 0.181230
0.047646 0.852974 -0.000133
1.601993 0.893208 0.222109
0.273072 0.953914 0.011535
0.147522 0.004039 0.207676
2.007821 0.839730 0.099613
2.028238 0.101937 0.203735
0.028199 0.374571 0.238425
1.697175 0.903715 0.036296
2.033046 0.667468 0.200239
1.273598 0.517090 0.127621
0.054444 0.940269 0.002222
2.017117 0.290534 0.208101
0.018936 0.387727 0.245478
2.042207 0.866436 0.076275
1.246764 0.970492 0.050126
2.005977 0.763890 0.090744
1.220627 0.496022 0.055015
1.169122 0.972656 0.051933
2.019777 0.409893 0.057595
2.007231 0.605300 0.202884
1.936261 0.931763 0.091711
1.872017 0.948221 0.109819
0.726690 0.977200 0.072129
0.658304 0.017866 0.056641
1.080829 0.020661 0.176626
2.019279 0.075744 0.157400
2.007864 0.166258 0.184835
2.007855 0.119610 0.200900
2.033492 0.829768 0.188287
2.009141 0.738372 0.125480
</DataArray>
</Points>
<PointData>
<DataArray NumberOfComponents='1' type='Int32' Name='ParticleType' format='ascii'>
1
1
1
1
1
1
1
1
1
1
1
1
1
1
1
1
1
1
1
1
1
1
1
1
1
1
1
1
1
1
1
1
1
1
1
1
1
1
1
1
1
1
1
1
1
1
1
1
1
1
1
1
1
1
1
1
1
1
1
1
1
1
1
1
1
1
1
1
1
1
1
1
1
1
1
1
1
1
1
1
1
1
1
1
1
1
1
1
1
1
1
1
1
1
1
1
1
1
1
1
1
1
1
1
1
1
1
1
1
1
1
1
1
1
1
1
1
1
1
1
1
1
1
1
1
1
1
1
1
1
1
1
1
1
1
1
1
1
1
1
1
1
1
1
1
1
1
1
1
1
1
1
1
1
1
1
1
1
1
1
1
1
1
1
1
1
1
1
1
1
1
1
1
1
1
1
1
1
1
1
1
1
1
1
1
1
1
1
1
1
1
1
1
1
1
1
1
1
1
1
1
1
1
1
1
1
1
1
1
1
1
1
1
1
1
1
1
1
1
1
1
1
1
1
1
1
1
1
1
1
1
1
1
1
1
1
1
1
1
1
1
1
1
1
1
1
1
1
1
1
1
1
1
1
1
1
1
1
1
1
1
1
1
1
1
1
1
1
1
1
1
1
1
1
1
1
1
1
1
1
1
1
1
1
1
1
1
1
1
1
1
1
1
1
1
1
1
1
1
1
1
1
1
1
1
1
1
1
1
1
1
1
1
1
1
1
1
1
1
1
1
1
1
1
1
1
1
1
1
1
1
1
1
1
1
1
1
1
1
1
1
1
1
1
1
1
1
1
1
1
1
1
1
1
1
1
1
1
1
1
1
1
1
1
1
1
1
1
1
1
1
1
1
1
1
1
1
1
1
1
1
1
1
1
1
1
1
1
1
1
1
1
1
1
1
1
1
1
1
1
1
1
1
1
1
1
1
1
1
1
1
1
1
1
1
1
1
1
1
1
1
1
1
1
1
1
1
1
1
1
1
1
1
1
1
1
1
1
1
1
1
1
1
1
1
1
1
1
1
1
1
1
1
1
1
1
1
1
1
1
1
1
1
1
1
1
1
1
1
1
1
1
1
1
1
1
1
1
1
1
1
1
1
1
1
1
1
1
1
1
1
1
1
1
1
1
1
1
1
1
</DataArray>
<DataArray NumberOfComponents='1' type='Int32' Name='ParticleID' format='ascii'>
0
1
2
3
4
5
6
7
8
9
10
11
12
13
14
15
16
17
18
19
20
21
22
23
24
25
26
27
28
29
30
31
32
33
34
35
36
37
38
39
40
41
42
43
44
45
46
47
48
49
50
51
52
53
54
55
56
57
58
59
60
61
62
63
64
65
66
67
68
69
70
71
72
73
74
75
76
77
78
79
80
81
82
83
84
85
86
87
88
89
90
91
92
93
94
95
96
97
98
99
100
101
102
103
104
105
106
107
108
109
110
111
112
113
114
115
116
117
118
119
120
121
122
123
124
125
126
127
128
129
130
131
132
133
134
135
136
137
138
139
140
141
142
143
144
145
146
147
148
149
150
151
152
153
154
155
156
157
158
159
160
161
162
163
164
165
166
167
168
169
170
171
172
173
174
175
176
177
178
179
180
181
182
183
184
185
186
187
188
189
190
191
192
193
194
195
196
197
198
199
200
201
202
203
204
205
206
207
208
209
210
211
212
213
214
215
216
217
218
219
220
221
222
223
224
225
226
227
228
229
230
231
232
233
234
235
236
237
238
239
240
241
242
243
244
245
246
247
248
249
250
251
252
253
254
255
256
257
258
259
260
261
262
263
264
265
266
267
268
269
270
271
272
273
274
275
276
277
278
279
280
281
282
283
284
285
286
287
288
289
290
291
292
293
294
295
296
297
298
299
300
301
302
303
304
305
306
307
308
309
310
311
312
313
314
315
316
317
318
319
320
321
322
323
324
325
326
327
328
329
330
331
332
333
334
335
336
337
338
339
340
341
342
343
344
345
346
347
348
349
350
351
352
353
354
355
356
357
358
359
360
361
362
363
364
365
366
367
368
369
370
371
372
373
374
375
376
377
378
379
380
381
382
383
384
385
386
387
388
389
390
391
392
393
394
395
396
397
398
399
400
401
402
403
404
405
406
407
408
409
410
411
412
413
414
415
416
417
418
419
420
421
422
423
424
425
426
427
428
429
430
431
432
433
434
435
436
437
438
439
440
441
442
443
444
445
446
447
448
449
450
451
452
453
454
455
456
457
458
459
460
461
462
463
464
465
466
467
468
469
470
471
472
473
474
475
476
477
478
479
480
481
482
483
484
485
486
487
488
489
490
491
492
493
494
495
496
497
498
499
</DataArray>
<DataArray NumberOfComponents='1' type='Int8' Name='IsActive' format='ascii'>
1
0
1
0
0
1
0
0
1
1
1
1
1
1
1
0
0
0
1
0
0
1
0
1
0
0
1
0
1
1
0
1
1
0
1
0
0
0
1
0
1
1
1
1
0
1
1
0
0
0
0
1
0
1
1
1
1
1
0
1
1
0
1
0
0
1
1
0
1
0
0
1
1
0
1
1
0
0
0
0
1
0
1
0
0
1
1
0
0
0
1
0
0
1
0
0
1
0
0
1
0
1
0
0
0
0
0
0
0
1
0
0
1
0
1
0
0
0
1
1
1
1
0
1
0
1
0
0
0
1
1
1
0
0
0
0
0
0
1
1
0
0
0
0
0
1
1
0
0
0
0
1
0
0
1
1
1
1
1
1
0
1
0
0
1
0
0
0
1
1
1
0
0
1
0
0
1
0
0
0
0
1
1
1
1
0
0
1
0
1
0
0
0
0
1
0
0
1
0
1
0
0
1
0
1
0
1
0
0
1
0
0
0
0
1
0
0
0
0
1
0
1
1
0
0
1
0
1
1
1
0
1
1
0
1
1
0
1
0
1
1
1
0
0
0
1
0
1
1
1
0
0
1
1
0
1
0
1
1
1
0
1
0
0
0
0
1
0
0
1
0
1
0
0
0
0
0
0
0
0
0
0
1
0
0
1
0
1
0
1
1
0
0
1
1
0
0
1
0
1
1
0
0
0
1
0
0
1
1
1
0
1
1
0
0
1
0
1
0
0
0
0
1
1
1
0
1
1
0
0
1
1
1
0
0
0
1
1
1
0
0
1
0
1
1
0
0
0
0
1
0
1
1
0
1
0
1
0
1
1
0
0
1
0
1
1
1
1
0
1
1
1
0
1
0
1
0
1
0
0
0
0
1
0
0
1
0
0
1
0
0
1
0
0
0
1
1
1
0
1
0
1
0
1
0
1
0
0
0
0
1
0
1
1
0
1
0
0
1
0
0
1
1
0
0
0
0
1
0
0
0
1
0
0
0
1
0
0
0
1
0
0
0
0
0
0
0
0
0
1
1
0
1
0
1
0
1
0
0
1
1
1
0
1
1
1
1
0
1
0
0
1
1
1
0
1
1
1
0
1
1
0
1
0
1
0
1
1
0
1
1
1
1
1
1
0
0
0
0
0
</DataArray>
<DataArray NumberOfComponents='1' type='Int32' Name='ParticleTetID' format='ascii'>
70204
-50400
86218
-69862
-102510
65261
-69112
-82730
90587
68815
73863
73336
17081
79526
57691
-93293
-91090
-74058
73112
-98831
-12127
35020
-98411
4933
-93293
-102840
31781
-91191
100560
85659
-34180
31180
69021
-39168
9409
-81615
-69112
-42296
60054
-96731
94971
60816
43314
72789
-90119
76129
94294
-93119
-79211
-82225
-90337
80251
-25302
100560
35629
73193
96905
23438
-27681
74732
13459
-90337
97319
-57434
-90680
72893
54939
-27681
71027
-104925
-80727
50079
92388
-96019
80251
49544
-75610
-98411
-34180
-57434
96660
-57434
44958
-42296
-102510
36498
32949
-50400
-98306
-69112
94052
-93293
-104802
28798
-83399
-79063
99903
-90337
-79597
14846
-90622
39671
-96019
-58762
-86274
-93119
-58762
-98765
-86274
79316
-96731
-44272
33411
-24526
57691
-92602
-87306
-96325
98699
46494
100821
104550
-74058
51507
-39168
30649
-98765
-39168
-17626
86360
4603
100092
-96325
-104925
-58762
-64130
-96944
-104802
93399
66847
-95998
-92602
-88016
-12127
-70156
60583
87369
-70156
-92373
-88016
-44138
67130
-83215
-102510
69075
79507
3311
85080
99903
79767
-39168
46058
-96019
-17626
16006
-39168
-90337
-74393
78623
105751
97137
-87514
-102840
57270
-93819
-39168
99126
-96354
-39168
-102840
-91248
75390
-91090
89909
47956
-89958
-89958
97137
-96849
44136
-96019
-92373
-85990
-91248
95611
-69112
-83215
66334
-85990
18044
-102840
-83820
75180
-64130
9357
-83215
64192
-90337
-98831
64324
-34180
-104802
-98210
-27681
19459
-69112
-98308
-91248
-61396
99302
-70156
-46315
73976
-74393
-102840
58084
-82524
24328
98088
-96944
-70433
69970
46025
-99021
34707
91382
-83399
30827
-104802
63907
86788
33297
-58762
-98308
-102510
52920
-90231
7717
69918
70109
-82225
-34180
75999
82837
-27681
14859
-84540
99980
65413
102908
-104802
88264
-42296
-93119
-98210
-42296
79435
-90131
-83399
103228
-96019
85474
-94130
-91191
-25302
-83399
-58762
-99021
-79211
-98411
-48492
-96019
86360
-79211
-96944
96396
-100353
93306
-96019
62412
76543
-61396
-34180
19568
73708
-90680
-98831
80227
-100422
81003
48168
-24687
-82730
-102840
33909
-90622
-83399
51674
85254
7512
-64130
34997
448
-42296
-104925
100092
-88016
95383
-27681
-57434
-92602
-94146
25782
14070
74099
-34180
101063
30692
-83215
-91191
100092
74492
70459
-96731
-101355
-96731
36907
65500
98826
-98411
-94146
54663
-44138
99585
36935
-58762
-71594
-17626
-25092
18675
-61396
39966
25693
-96849
32945
-25092
66943
-27681
-99052
46112
-17626
-98831
90657
-83820
85473
105750
55748
100743
-56272
75737
36597
7194
-91191
43763
-83215
86956
-96325
42063
-98308
-43214
-98306
-44138
71071
-44138
-19405
85509
-70156
-34180
88978
-101044
-48492
3133
-94130
-98308
-42296
47917
88441
96062
-94130
27850
-93119
101509
-24687
46816
-89958
40863
-81615
-42296
-42146
-83215
50916
-70433
102062
74324
-94130
30692
-99096
-69862
3721
-94130
-99911
66253
61725
-91248
-96944
-25092
-92373
23031
-104925
-102840
-24526
69582
-102840
-24687
-19405
74225
-96944
-83399
-98210
37164
-98831
-79597
-34180
-96731
-69914
-92373
-99721
-44138
-27681
37784
14135
-44138
8868
-24526
20320
-90680
40064
-50400
-42296
43545
64515
-105531
-42146
88021
19088
78623
59846
-95447
47265
-99721
-100561
13184
46816
100376
-96019
-44138
101063
43763
-42146
42342
99121
-91090
101063
-96019
78662
-98411
41636
66717
-46315
-78226
11612
448
39762
72789
95735
-104925
-99721
-44138
-90337
-102840
</DataArray>
<DataArray NumberOfComponents='3' type='Float32' Name='vels' format='ascii'>
14.173217 -4.478461 -0.012322
22.746117 0.571945 -0.290697
0.044278 -0.002985 0.000020
20.081773 -0.217840 -0.277921
23.484112 -0.510887 0.083072
1.457546 -0.015952 0.001517
20.333378 0.277334 -0.621174
12.783111 0.221707 0.073535
16.253591 -5.416245 -0.011316
19.370689 -2.948500 -0.013335
13.275312 3.072310 0.006861
1.430125 0.002119 -0.004015
16.013982 1.405211 0.082245
4.506084 -0.895496 -0.002652
11.322357 -1.523394 -0.029554
20.644419 -0.244898 0.011251
14.087736 0.281257 1.252631
14.293141 1.904616 0.878634
18.558053 0.046900 0.002303
19.044396 -1.244907 -0.238396
21.835456 0.067503 1.640637
5.481515 -0.037666 0.010418
20.051412 -0.328575 -0.076616
1.962613 -0.000524 0.014477
18.297037 -0.214221 0.115799
22.591256 -0.226395 0.244628
3.223768 0.140036 -0.123083
21.418610 0.522880 0.667956
0.165806 0.053582 -0.017251
9.529712 0.404711 -0.015095
22.058982 -0.221339 0.905368
2.535876 -0.174770 0.000512
11.489883 0.148922 0.081505
19.420937 -0.419907 0.689956
11.575965 -0.499178 0.005428
9.873437 -0.276749 0.223623
19.690416 0.183231 -1.354405
17.262796 -0.581290 -0.236368
15.571411 -1.312242 0.082816
13.718675 -1.653544 -1.157650
15.326425 0.145061 -0.080008
15.755357 -1.873239 0.008295
2.522254 -0.064119 0.000808
5.279143 -0.074022 -0.014755
23.253517 -0.506630 -0.243077
2.780927 0.005002 0.000031
0.019652 0.016860 -0.003230
21.234953 -0.478901 -0.021576
16.783738 0.725048 0.022270
15.336051 -0.375124 2.450828
15.641460 0.592641 2.478244
-0.018775 -0.028065 0.007250
23.583462 0.705706 0.031841
0.150018 0.056449 -0.016269
1.656488 -1.330115 0.032886
11.730818 0.989009 -0.058605
9.921186 1.535521 -0.003732
5.827459 3.026843 -0.011973
16.294222 1.334800 -0.294998
15.731691 0.132568 -0.048409
14.926048 4.295247 0.016478
15.971599 0.661878 2.362355
1.526348 -0.003411 0.015196
16.469972 -0.440812 0.460427
8.803361 -0.053175 -1.230980
0.467638 0.004805 -0.000096
14.890729 6.542402 0.016432
16.358776 2.099030 -0.512324
12.306521 0.968385 0.020840
12.106804 0.099396 -0.173926
20.829917 -0.376475 0.351593
11.561659 -9.233881 -0.199176
11.657602 -0.225362 0.033873
21.624399 0.251894 -0.102345
0.011686 0.005879 0.000739
18.301467 0.992398 -0.068560
18.270654 -0.489875 0.186874
16.029687 -0.488661 0.199500
22.453575 -0.519201 0.546982
20.858756 -0.561026 1.745228
11.261775 -0.411903 0.006379
22.318605 -0.637696 0.060034
7.048579 -0.194458 0.080271
17.872999 -0.508012 -0.210598
21.544261 -0.576351 -0.237666
9.992959 -1.058501 0.003631
9.199910 0.277691 0.030443
22.850020 0.504740 0.291769
16.743318 -0.167094 -0.066923
20.405083 0.175823 -1.416689
6.116022 3.204814 -0.007641
18.397170 2.312845 0.926571
22.928140 -0.721532 0.020940
11.205820 0.189811 0.303039
21.674624 0.629290 -1.020716
0.117633 0.000420 0.000014
0.080792 0.034599 0.014928
18.277976 1.459873 2.053854
15.193783 -0.200755 0.411678
13.307179 0.568862 -0.106514
9.911597 0.030293 -0.531683
4.150078 0.005854 0.005611
16.604183 0.954922 -1.554912
16.518350 0.455337 -2.328386
22.200797 0.725471 -0.532589
19.328759 -0.349707 0.354440
19.388330 0.531497 -1.176200
23.505890 -0.017541 0.011079
21.587448 0.974728 -0.641169
11.071609 0.347603 -0.005708
16.482712 -1.531327 -0.673981
20.251569 0.364379 1.295825
2.317042 0.025936 0.002755
22.036278 0.624905 -0.469285
11.313633 -1.249083 -0.028935
10.498283 -0.075992 -0.761585
21.786999 -0.601339 -0.143358
14.298232 0.925327 0.629781
0.144629 0.001546 -0.002823
2.810776 0.030890 -0.073487
0.054361 -0.001058 0.000833
0.565497 0.126665 -0.000290
14.099799 2.576252 1.169191
0.375857 -0.002180 -0.007298
17.437643 -0.326126 1.677305
13.518554 0.005396 -0.019776
23.130137 -0.019389 0.136113
16.798710 -0.409249 0.846982
21.975496 -0.398811 0.347033
11.053312 0.768666 0.023546
20.861851 2.325449 0.004388
-0.199255 0.030189 -0.001936
17.775444 0.811653 0.366037
14.614608 -2.401172 0.802102
16.323602 0.461840 -1.527500
20.101702 0.219511 -1.888051
10.340887 0.260235 0.538024
23.078656 -0.988561 -0.027553
3.774949 0.034286 0.008223
3.294317 -0.146978 -0.002269
22.910553 -0.665074 -0.024346
15.478941 0.434950 -2.683764
3.843808 0.025786 -0.011749
23.086697 0.462772 0.127130
20.097993 -0.001831 0.998274
6.421246 0.143471 -0.000914
6.819566 -0.117073 -0.034801
21.604291 0.016050 0.594368
20.440455 0.307652 -1.507826
3.309534 0.025848 -0.069147
16.746200 -1.534288 1.226030
11.653032 -0.534761 -0.050816
23.785807 0.531745 -0.031865
21.848852 0.420922 0.793156
17.016496 -0.173312 0.073687
5.993934 -0.016592 -0.106423
11.150443 -0.346819 0.028156
9.971636 5.182609 -0.007009
0.106195 -0.016553 0.022379
13.161085 -1.588135 -0.060256
17.330247 -0.352344 1.789258
13.845877 -0.360462 -0.031018
19.581049 0.422816 -0.371368
23.074533 -0.332614 -0.039117
11.297974 0.844512 0.011791
16.564731 -0.331065 1.203524
19.095386 0.410807 1.106184
21.597133 -0.714607 0.164443
14.054602 0.387375 0.060688
0.021029 0.000005 0.001629
-0.169791 -0.000445 0.012021
18.889380 -0.021748 0.028150
23.744358 -0.623742 0.078356
15.735955 -4.122658 -0.043210
21.550093 0.597724 0.177560
19.931805 -0.620684 -0.104144
0.450429 0.001023 -0.002213
22.186483 -0.580909 0.085191
18.532700 -0.364004 0.898198
22.731125 -0.410106 -0.267865
16.903104 -0.287756 -3.000994
14.282665 -1.987035 -0.005358
14.810948 0.363075 0.196271
2.579520 -0.015850 0.014017
4.939813 -0.005205 -0.029332
15.925088 1.660978 -1.064572
13.425174 2.439846 -1.661108
0.059124 -0.002098 -0.009755
22.474392 0.693944 0.051149
5.255599 1.002144 0.002398
16.990761 0.499263 -0.526326
17.556272 0.387056 -1.088772
22.424382 0.267650 -0.125181
19.438241 -0.645570 0.307630
1.119966 0.009579 -0.002230
19.790404 0.145941 -0.245545
23.805036 0.246133 -0.090822
15.839565 0.013216 0.001135
17.974424 -0.188307 1.097113
11.698765 1.073153 -0.038043
22.916248 -0.253452 -0.514480
18.818351 0.349067 -1.391396
5.752933 0.421907 0.002825
15.899244 0.166904 -2.510908
3.220070 -0.063646 -0.014782
23.480659 0.156312 -0.174877
13.028412 0.841574 -1.432461
18.643998 0.568643 0.689326
18.384430 -0.878138 0.303210
16.300370 -0.378310 0.027500
23.583081 -0.560089 0.024302
23.161558 -0.767744 -0.045548
20.291565 1.561776 -0.694303
16.401910 -0.321120 -0.053734
11.842473 1.073985 0.093010
21.410000 0.626257 0.310330
18.442322 0.652253 -0.220620
17.690202 -0.279277 -2.290119
18.769647 0.377517 0.667154
0.538330 -0.004839 -0.000958
17.750980 -0.020871 0.508239
17.540848 0.458101 -1.060460
11.912459 1.302677 0.040387
20.417662 -0.645471 0.231195
23.602854 -0.615112 0.038929
12.943838 0.571002 -0.064247
18.576584 -0.501876 -0.358508
3.238980 0.751251 -0.005866
7.363143 -0.156767 -0.057849
13.702585 0.396953 0.289287
6.917325 -0.024386 0.013341
0.091394 -0.035510 0.010930
4.225921 1.323426 0.001447
21.328316 0.562810 0.238438
6.912449 0.244435 -0.041861
5.023110 0.003461 0.062166
22.195289 0.732663 -0.247530
8.873247 -2.776496 0.014478
22.344953 -0.609651 0.782143
13.180404 0.183625 0.005375
7.862324 -0.715347 -0.009009
10.726622 -0.349428 -0.202504
21.407858 0.824238 0.337188
17.297617 0.488402 2.433505
23.606339 -0.372745 -0.031862
3.191494 -0.044266 0.197036
13.166489 -0.210343 -1.750043
4.579065 0.027480 -0.011734
17.475762 1.140382 0.011664
14.643495 -0.509693 -0.001247
14.328609 -0.354769 1.438157
21.838368 -0.661170 -0.191753
4.191804 0.027563 0.020410
11.596028 -0.442563 0.004317
15.580226 -0.323972 0.093963
14.007445 0.288134 -0.019900
21.053992 -0.422851 0.024730
-0.003978 0.001006 0.039289
1.913153 0.026200 -0.000264
17.653612 0.086250 0.013007
23.244983 -0.730652 -0.131282
12.362226 0.122404 0.000364
20.722970 -0.207133 -0.102217
22.750940 -0.531753 0.033055
20.545453 -0.083357 -0.102342
20.285490 -0.903266 0.046184
4.215079 -0.535693 0.002533
21.801124 0.497681 -0.757091
19.879728 0.548398 -0.714806
11.010537 3.230461 -0.018505
18.274489 0.518023 -0.272507
-0.012065 0.001902 -0.005904
22.049778 0.519534 -0.195881
19.783170 0.573937 0.196976
23.087101 0.531150 0.110178
20.744513 0.554739 -1.416790
18.689961 0.464014 -2.153891
22.952633 -0.348073 -0.012363
15.385875 1.081334 -0.018862
20.312842 -0.228192 -0.737240
18.555870 0.457150 -0.153506
18.423548 1.307541 -2.021391
12.201053 0.909813 0.029236
16.597472 0.870109 0.031602
13.153952 0.251382 1.635128
10.645079 1.658224 0.005753
15.862789 -1.859636 -1.900831
0.097215 0.000655 -0.000239
20.159521 0.339274 -0.414015
19.425158 -0.109298 -0.003431
11.153740 -0.903988 -0.032076
21.204620 0.562607 -0.004813
21.937366 -0.464106 0.805875
1.889336 -4.758413 0.262548
13.109998 -0.336509 -0.095539
19.470028 -0.491725 -0.239990
17.251731 -2.118573 0.970715