<VTKFile type='UnstructuredGrid' version='1.0' byte_order='LittleEndian' header_type='UInt64'>
<UnstructuredGrid>
<Piece NumberOfCells='500' NumberOfPoints='500'>
<Points>
<DataArray NumberOfComponents='3' type='Float32' Name='Position' format='ascii'>
0.883102 0.693603 0.227349
2.041913 0.322548 0.117272
0.207574 0.979435 0.221509
1.807811 0.827280 0.185048
2.006422 0.772777 0.106364
0.106569 0.192266 0.247089
2.021840 0.236634 0.075397
1.304741 0.891598 0.209886
0.859685 0.685380 0.223887
0.769361 0.797572 0.228334
0.838363 0.198570 0.034901
0.183029 0.006837 0.058181
0.865028 0.575417 0.219472
0.475250 0.251063 0.237399
0.922313 0.786158 0.215277
1.978428 0.897300 0.149852
1.285544 0.157804 0.203958
1.209645 0.956749 0.162084
0.574794 0.800239 0.218912
1.980763 0.107279 0.113274
2.053310 0.240382 0.149626
0.011739 0.100634 0.236155
2.013011 0.752185 0.079681
0.186235 0.990988 0.150843
2.010016 0.889759 0.129730
2.047684 0.745451 0.119795
1.068938 0.489904 0.093944
2.034071 0.303870 0.160488
0.034509 0.848347 0.004154
0.585153 0.937536 0.220112
2.049422 0.718082 0.151819
0.387949 0.310753 0.241794
0.619569 0.962233 0.184521
1.790475 0.734534 0.181389
0.946347 0.972229 0.128890
1.293273 0.800106 0.202632
2.032977 0.238094 0.074622
2.000648 0.118576 0.122908
1.001810 0.737333 0.044753
1.325647 0.050624 0.066849
0.725588 0.080360 0.215456
0.446640 0.288091 0.239262
0.262623 0.292628 0.006473
0.434279 0.038179 0.030970
2.007880 0.710244 0.115067
0.081337 0.525421 0.008467
0.028614 0.126865 0.020247
2.001995 0.747523 0.166309
1.221762 0.959778 0.105772
1.505474 0.807521 0.199404
1.995018 0.854345 0.170822
0.022956 0.668122 0.224186
2.008327 0.295468 0.130869
0.038825 0.849456 0.003004
0.759411 0.472022 0.227632
0.947805 0.266723 0.207690
0.560270 0.861138 0.230203
0.936704 0.365841 0.039969
1.766626 0.920472 0.118142
0.711957 0.043733 0.165553
0.812011 0.208321 0.027064
2.033928 0.852710 0.179680
0.165995 0.993364 0.193817
1.641493 0.743724 0.190612
1.405302 0.829604 0.043615
0.150573 0.724227 0.003692
0.782623 0.354220 0.030517
1.818285 0.916087 0.127427
0.989392 0.069385 0.205144
1.808102 0.090384 0.155635
2.032726 0.151930 0.157049
0.853204 0.437691 0.026523
0.847696 0.970967 0.114305
2.012379 0.857800 0.088540
0.042265 0.652739 0.243623
0.795035 0.609600 0.028748
1.695149 0.754526 0.053900
1.918493 0.736310 0.068136
2.032027 0.708061 0.156368
2.047422 0.659033 0.158041
0.014000 0.205489 0.214728
2.008623 0.671327 0.150335
1.377748 0.951586 0.067016
2.000212 0.119345 0.120454
2.027649 0.788814 0.122788
0.446671 0.252478 0.238903
0.560752 0.966815 0.185639
2.037782 0.301018 0.135393
1.721865 0.066555 0.105653
2.037639 0.231862 0.074891
0.741447 0.607348 0.022185
1.997869 0.895988 0.124779
2.041219 0.688146 0.137356
1.225010 0.124927 0.039847
2.033186 0.327317 0.104475
0.091156 0.612680 0.248222
0.026282 0.559498 0.248467
1.764467 0.830231 0.195344
1.398923 0.905779 0.048416
0.978770 0.097561 0.201484
1.424952 0.129716 0.046016
0.029301 0.986052 0.174495
2.030091 0.839346 0.098504
1.991764 0.353529 0.083682
2.041484 0.819601 0.133527
2.016896 0.735843 0.177114
2.005133 0.350592 0.093012
2.030378 0.211665 0.125291
2.051344 0.818365 0.128576
1.019177 0.031430 0.115505
1.930298 0.099316 0.092337
1.446125 0.224428 0.184707
0.237013 0.908288 0.241511
2.022922 0.372593 0.103430
0.922446 0.786317 0.214713
1.361578 0.857152 0.041202
2.020701 0.649097 0.095229
1.800567 0.909108 0.170450
0.024904 0.993614 0.221319
1.051049 0.496768 0.073205
0.080025 0.042990 0.005913
0.918416 0.228544 0.211898
1.206967 0.953777 0.156091
1.596125 0.044997 0.123201
1.642303 0.782624 0.187269
0.738931 0.906937 0.028251
2.022575 0.188149 0.135854
1.690836 0.726103 0.191421
2.023163 0.803616 0.100864
1.067553 0.069920 0.037947
0.751884 0.146489 0.225430
0.012962 0.503209 0.223389
1.970933 0.885592 0.166565
1.406384 0.040347 0.148873
1.889244 0.344817 0.076520
1.665398 0.207022 0.052071
1.293407 0.212181 0.201101
2.018896 0.681016 0.127061
0.418245 0.984658 0.100286
0.629374 0.490901 0.234622
2.018782 0.639498 0.119193
1.573823 0.812062 0.049029
1.368544 0.174674 0.040013
2.020581 0.271387 0.143559
2.029636 0.772421 0.161292
0.530781 0.969904 0.190366
0.464437 0.017824 0.101988
2.030579 0.775512 0.178289
1.471387 0.162769 0.047095
1.306170 0.162186 0.039646
1.766615 0.098296 0.168983
1.119897 0.925452 0.206894
2.007401 0.237211 0.132114
2.043957 0.792899 0.145899
0.822343 0.964880 0.089189
0.721601 0.963532 0.173451
0.550555 0.038188 0.161366
0.892497 0.362398 0.035073
0.035408 0.567294 0.249082
0.822738 0.591979 0.224821
1.845709 0.727950 0.181692
0.827828 0.961921 0.176317
2.015580 0.844944 0.092940
2.035106 0.799893 0.114166
0.834191 0.112337 0.224701
1.932588 0.729006 0.176376
1.832911 0.845463 0.182409
1.910912 0.635169 0.092036
0.770934 0.041902 0.168219
0.562318 0.032076 0.168369
0.038937 0.987866 0.128927
1.800783 0.138693 0.064085
2.002765 0.755692 0.135449
0.959769 0.801072 0.215973
1.922907 0.363418 0.155099
1.889327 0.693689 0.181575
0.046075 0.984872 0.005389
1.937290 0.617582 0.122595
1.795015 0.739410 0.185604
2.054804 0.758295 0.109029
2.041637 0.681193 0.088195
0.892446 0.895670 0.041731
1.105652 0.174499 0.208628
0.994874 0.960741 0.174107
0.020387 0.015709 0.078878
1.758173 0.920564 0.089831
1.357209 0.948825 0.071006
0.038280 0.989037 0.138730
2.043955 0.337547 0.127159
0.514098 0.787303 0.238194
2.014167 0.830135 0.092786
1.811557 0.282383 0.062004
2.006074 0.222603 0.150129
2.012553 0.718654 0.076826
0.106258 0.879291 0.246434
2.014067 0.221852 0.075742
2.022074 0.220839 0.125137
0.667029 0.042383 0.158509
2.024098 0.190148 0.166427
0.998324 0.081849 0.036066
2.031926 0.750208 0.100893
2.032816 0.780082 0.070591
0.555437 0.903273 0.018732
1.702301 0.195409 0.055277
0.558414 0.030583 0.189755
2.032852 0.230892 0.118425
0.016573 0.159542 0.235043
2.019598 0.843053 0.176573
1.932140 0.103193 0.145118
0.430003 0.476853 0.241111
2.045287 0.712677 0.129932
2.035427 0.694947 0.126864
2.048916 0.864810 0.125488
1.799391 0.920550 0.124545
0.882564 0.071531 0.044148
2.035264 0.224157 0.103852
2.025508 0.345656 0.154944
1.680078 0.770503 0.062922
2.008734 0.276993 0.174787
0.140473 0.026967 0.023427
2.014314 0.785718 0.158959
1.323754 0.229979 0.059261
0.778848 0.126694 0.024900
1.976529 0.626909 0.105605
2.002812 0.754347 0.144586
0.905572 0.034098 0.127499
1.874969 0.673759 0.073941
0.605381 0.537456 0.014618
0.584275 0.024151 0.098421
1.080762 0.216712 0.204808
1.659596 0.152801 0.052845
0.040049 0.707523 0.241213
0.503152 0.599067 0.014410
2.037639 0.183166 0.137945
0.901920 0.050592 0.168538
0.299677 0.969749 0.215604
2.030415 0.333994 0.097299
0.962619 0.730850 0.034242
2.021489 0.647323 0.134533
0.568800 0.931374 0.206161
0.573666 0.108672 0.021066
1.166972 0.817448 0.210588
1.710930 0.306806 0.063863
1.682569 0.279343 0.186690
2.017192 0.772864 0.111412
0.999779 0.502063 0.060156
1.252066 0.818168 0.042735
0.374031 0.980403 0.159882
0.827009 0.096177 0.214019
0.579151 0.203408 0.024446
1.346976 0.819516 0.201657
2.005690 0.712882 0.141472
0.632292 0.976896 0.142704
1.027111 0.969173 0.115050
1.850516 0.913278 0.136128
0.747226 0.392684 0.228235
1.534751 0.722713 0.096438
0.033063 0.995273 0.046126
0.188191 0.792457 0.005440
0.007242 0.622734 0.215599
2.007652 0.682386 0.138880
0.038707 0.620115 0.243451
2.005989 0.126293 0.114610
2.008474 0.747795 0.153841
2.001298 0.857592 0.150809
2.025124 0.119820 0.148109
0.441244 0.393190 0.013263
1.522077 0.265474 0.107517
1.881637 0.309420 0.073920
0.607955 0.787657 0.232635
1.967823 0.881443 0.091101
0.036950 0.189688 0.013823
2.015784 0.275097 0.093220
1.911949 0.305003 0.173142
2.033909 0.289244 0.112282
2.042875 0.331086 0.077792
1.845622 0.329311 0.072899
2.034917 0.195737 0.108191
1.709691 0.932235 0.104268
2.027577 0.749487 0.077519
1.873382 0.889041 0.082260
2.043238 0.860607 0.086299
1.046444 0.072962 0.038093
1.289535 0.958244 0.105611
1.397905 0.195727 0.199577
0.935331 0.133952 0.029059
1.744585 0.096795 0.069631
0.092751 0.965038 0.238799
2.018576 0.840891 0.076544
0.603913 0.752930 0.031220
1.053612 0.920870 0.211350
2.003428 0.277166 0.164066
2.040073 0.728954 0.132857
0.846286 0.468615 0.210663
0.659048 0.061983 0.033747
1.219532 0.828268 0.037478
1.870005 0.095093 0.148720
1.164906 0.104272 0.037474
1.474985 0.742869 0.109298
0.746634 0.483317 0.227454
1.003364 0.602332 0.173623
2.010992 0.147421 0.096275
1.423628 0.899010 0.208724
2.038118 0.748146 0.141266
1.109940 0.812416 0.215330
1.416943 0.146671 0.043321
2.038461 0.336184 0.102265
1.056521 0.969262 0.123466
0.613475 0.136688 0.028881
0.960168 0.947768 0.069110
1.726629 0.213109 0.060112
0.668114 0.486878 0.017372
1.034118 0.952765 0.078844
2.026656 0.128085 0.135971
1.617844 0.059230 0.151476
0.013984 0.509564 0.234968
1.389108 0.167011 0.041839
0.663726 0.299800 0.232822
1.518713 0.950692 0.117789
2.012230 0.680055 0.167305
1.444734 0.846975 0.043613
1.937269 0.770467 0.183486
1.050930 0.785610 0.034924
0.393667 0.981558 0.196304
0.039550 0.425728 0.016737
2.002534 0.716035 0.146029
0.029166 0.373958 0.239326
0.707762 0.056600 0.038330
2.028122 0.221336 0.119898
1.862038 0.305809 0.180277
0.013594 0.514627 0.242339
0.518831 0.433981 0.228800
0.498435 0.035906 0.043212
1.781170 0.090122 0.076821
0.008488 0.605545 0.000270
1.676995 0.074430 0.077001
0.961489 0.675013 0.043228
0.991765 0.771536 0.032094
0.008243 0.280333 0.235434
2.048770 0.749451 0.090866
1.892630 0.792206 0.188461
0.910726 0.590299 0.041230
1.794840 0.094137 0.168078
0.601441 0.965874 0.068047
0.044851 0.133056 0.025170
1.974055 0.338441 0.076788
0.018953 0.890552 0.250145
2.000588 0.799573 0.125313
1.467293 0.759988 0.066586
1.029667 0.742324 0.203069
2.028930 0.271324 0.174884
1.056850 0.069114 0.042709
0.055953 0.981064 0.215381
2.026492 0.348990 0.140628
0.678165 0.908342 0.226231
1.681643 0.644340 0.081019
0.188824 0.009454 0.207564
1.596556 0.945418 0.137558
1.282183 0.919663 0.206051
0.956717 0.927388 0.043720
2.025588 0.792722 0.125310
1.865801 0.082122 0.137637
0.569148 0.954638 0.202196
2.006244 0.790524 0.087015
0.405863 0.026894 0.041189
0.470565 0.020714 0.164404
1.004398 0.412825 0.075174
0.018002 0.746191 0.011375
2.007610 0.172173 0.078813
1.015256 0.158091 0.214160
1.010776 0.487489 0.060293
0.030605 0.532804 0.228108
2.020352 0.301361 0.168629
0.852805 0.888551 0.035931
2.054257 0.245705 0.112442
1.028709 0.451115 0.108246
1.668353 0.918516 0.182313
0.941763 0.096107 0.216904
1.622134 0.269716 0.188569
1.268199 0.964515 0.141204
1.859030 0.097950 0.102509
1.626487 0.081665 0.184784
0.477503 0.034855 0.212898
1.833999 0.102622 0.174352
1.636321 0.337869 0.145248
0.704496 0.960775 0.087301
2.020001 0.799353 0.160508
2.012249 0.715509 0.135389
0.513447 0.979145 0.093755
0.034259 -0.000089 0.183998
1.377199 0.937873 0.056636
0.417246 0.484326 0.008805
2.047931 0.313367 0.104281
1.656682 0.305828 0.189119
2.033696 0.125638 0.135117
0.894020 0.726432 0.028646
1.041615 0.073201 0.210448
0.083181 0.983384 0.021280
2.001362 0.282336 0.081177
0.836477 0.415022 0.219956
2.016776 0.724579 0.168284
0.014856 0.013842 0.082852
2.007751 0.161367 0.097244
0.151401 0.958403 0.017312
1.481698 0.947129 0.076958
0.922927 0.071167 0.207373
1.194990 0.808266 0.206643
2.023007 0.116935 0.149028
1.635206 0.739531 0.194221
2.049318 0.245117 0.121517
0.947160 0.362695 0.208529
1.653178 0.164246 0.050333
0.927406 0.043979 0.174811
0.258531 0.989600 0.170122
2.017891 0.273142 0.089601
0.702686 0.068733 0.033878
2.001818 0.350240 0.144337
1.928133 0.826048 0.174790
1.024164 0.514490 0.187636
2.040798 0.271093 0.087862
1.662528 0.834810 0.053527
0.512062 0.095836 0.018636
0.684584 0.911695 0.219865
2.010548 0.695931 0.089083
1.235845 0.211112 0.198729
1.266752 0.759821 0.057072
2.024173 0.282589 0.075697
0.902520 0.742425 0.224507
1.628203 0.071984 0.160833
2.039833 0.740614 0.110457
1.566847 0.268969 0.070831
0.569908 0.035577 0.194034
2.035768 0.751377 0.149175
2.021132 0.167951 0.105210
1.337670 0.250943 0.133985
0.644125 0.543038 0.015836
1.346068 0.192039 0.199855
2.033975 0.332578 0.095046
2.024310 0.858399 0.143123
0.756208 0.380258 0.024525
1.761517 0.068207 0.120155
1.477683 0.889829 0.044247
2.033033 0.715423 0.127692
1.918213 0.100743 0.090417
1.119831 0.255776 0.109683
1.609570 0.196847 0.048495
1.737767 0.166392 0.196776
1.327586 0.066457 0.201637
1.816256 0.922711 0.112840
0.214958 0.617457 0.003496
0.072864 0.686017 0.248261
1.595483 0.070588 0.182138
0.985864 0.174760 0.030712
1.713524 0.341824 0.076843
0.204923 0.638865 0.011950
1.203387 0.832267 0.042979
0.897619 0.240741 0.220611
2.019767 0.325567 0.131726
2.010451 0.114133 0.153634
1.004763 0.255580 0.210415
0.368181 0.024624 0.040482
1.304412 0.917038 0.044259
1.831812 0.670503 0.177882
0.040161 0.572963 0.014667
0.835166 0.532428 0.218184
0.780350 0.039617 0.161201
0.761115 0.070607 0.213163
2.024197 0.296343 0.159639
0.791710 0.719346 0.020307
1.910937 0.187505 0.181713
0.042052 0.850673 0.001093
0.859334 0.880385 0.221496
0.133009 0.953193 0.012047
0.119732 0.003753 0.208557
2.007821 0.839730 0.099613
1.192062 0.064336 0.200800
0.027564 0.374611 0.238931
0.913930 0.907259 0.035554
1.675415 0.720704 0.194604
1.075413 0.510946 0.127279
0.039920 0.939965 0.001451
1.419820 0.165390 0.206571
0.018768 0.387320 0.244867
1.994524 0.862399 0.079969
0.656760 0.950179 0.052449
2.005977 0.763890 0.090744
1.006469 0.495114 0.058958
0.643910 0.952909 0.052573
1.311111 0.235321 0.058013
1.278166 0.780345 0.203733
1.110996 0.954625 0.089635
1.077062 0.967640 0.108744
0.441423 0.976737 0.072399
0.446337 0.020364 0.057095
0.614099 0.035486 0.175457
1.639259 0.061305 0.159315
1.815746 0.158115 0.184896
1.302779 0.074514 0.200550
1.785020 0.841862 0.186038
2.009141 0.738372 0.125480
</DataArray>
</Points>
<PointData>
<DataArray NumberOfComponents='1' type='Int32' Name='ParticleType' format='ascii'>
1
1
1
1
1
1
1
1
1
1
1
1
1
1
1
1
1
1
1
1
1
1
1
1
1
1
1
1
1
1
1
1
1
1
1
1
1
1
1
1
1
1
1
1
1
1
1
1
1
1
1
1
1
1
1
1
1
1
1
1
1
1
1
1
1
1
1
1
1
1
1
1
1
1
1
1
1
1
1
1
1
1
1
1
1
1
1
1
1
1
1
1
1
1
1
1
1
1
1
1
1
1
1
1
1
1
1
1
1
1
1
1
1
1
1
1
1
1
1
1
1
1
1
1
1
1
1
1
1
1
1
1
1
1
1
1
1
1
1
1
1
1
1
1
1
1
1
1
1
1
1
1
1
1
1
1
1
1
1
1
1
1
1
1
1
1
1
1
1
1
1
1
1
1
1
1
1
1
1
1
1
1
1
1
1
1
1
1
1
1
1
1
1
1
1
1
1
1
1
1
1
1
1
1
1
1
1
1
1
1
1
1
1
1
1
1
1
1
1
1
1
1
1
1
1
1
1
1
1
1
1
1
1
1
1
1
1
1
1
1
1
1
1
1
1
1
1
1
1
1
1
1
1
1
1
1
1
1
1
1
1
1
1
1
1
1
1
1
1
1
1
1
1
1
1
1
1
1
1
1
1
1
1
1
1
1
1
1
1
1
1
1
1
1
1
1
1
1
1
1
1
1
1
1
1
1
1
1
1
1
1
1
1
1
1
1
1
1
1
1
1
1
1
1
1
1
1
1
1
1
1
1
1
1
1
1
1
1
1
1
1
1
1
1
1
1
1
1
1
1
1
1
1
1
1
1
1
1
1
1
1
1
1
1
1
1
1
1
1
1
1
1
1
1
1
1
1
1
1
1
1
1
1
1
1
1
1
1
1
1
1
1
1
1
1
1
1
1
1
1
1
1
1
1
1
1
1
1
1
1
1
1
1
1
1
1
1
1
1
1
1
1
1
1
1
1
1
1
1
1
1
1
1
1
1
1
1
1
1
1
1
1
1
1
1
1
1
1
1
1
1
1
1
1
1
1
1
1
1
1
1
1
1
1
1
1
1
1
1
1
1
1
1
1
1
1
1
1
1
1
1
1
1
1
1
1
1
1
1
1
1
1
1
1
1
1
1
1
1
1
</DataArray>
<DataArray NumberOfComponents='1' type='Int32' Name='ParticleID' format='ascii'>
0
1
2
3
4
5
6
7
8
9
10
11
12
13
14
15
16
17
18
19
20
21
22
23
24
25
26
27
28
29
30
31
32
33
34
35
36
37
38
39
40
41
42
43
44
45
46
47
48
49
50
51
52
53
54
55
56
57
58
59
60
61
62
63
64
65
66
67
68
69
70
71
72
73
74
75
76
77
78
79
80
81
82
83
84
85
86
87
88
89
90
91
92
93
94
95
96
97
98
99
100
101
102
103
104
105
106
107
108
109
110
111
112
113
114
115
116
117
118
119
120
121
122
123
124
125
126
127
128
129
130
131
132
133
134
135
136
137
138
139
140
141
142
143
144
145
146
147
148
149
150
151
152
153
154
155
156
157
158
159
160
161
162
163
164
165
166
167
168
169
170
171
172
173
174
175
176
177
178
179
180
181
182
183
184
185
186
187
188
189
190
191
192
193
194
195
196
197
198
199
200
201
202
203
204
205
206
207
208
209
210
211
212
213
214
215
216
217
218
219
220
221
222
223
224
225
226
227
228
229
230
231
232
233
234
235
236
237
238
239
240
241
242
243
244
245
246
247
248
249
250
251
252
253
254
255
256
257
258
259
260
261
262
263
264
265
266
267
268
269
270
271
272
273
274
275
276
277
278
279
280
281
282
283
284
285
286
287
288
289
290
291
292
293
294
295
296
297
298
299
300
301
302
303
304
305
306
307
308
309
310
311
312
313
314
315
316
317
318
319
320
321
322
323
324
325
326
327
328
329
330
331
332
333
334
335
336
337
338
339
340
341
342
343
344
345
346
347
348
349
350
351
352
353
354
355
356
357
358
359
360
361
362
363
364
365
366
367
368
369
370
371
372
373
374
375
376
377
378
379
380
381
382
383
384
385
386
387
388
389
390
391
392
393
394
395
396
397
398
399
400
401
402
403
404
405
406
407
408
409
410
411
412
413
414
415
416
417
418
419
420
421
422
423
424
425
426
427
428
429
430
431
432
433
434
435
436
437
438
439
440
441
442
443
444
445
446
447
448
449
450
451
452
453
454
455
456
457
458
459
460
461
462
463
464
465
466
467
468
469
470
471
472
473
474
475
476
477
478
479
480
481
482
483
484
485
486
487
488
489
490
491
492
493
494
495
496
497
498
499
</DataArray>
<DataArray NumberOfComponents='1' type='Int8' Name='IsActive' format='ascii'>
1
0
1
1
0
1
0
1
1
1
1
1
1
1
1
1
1
1
1
1
0
1
0
1
1
0
1
0
1
1
0
1
1
1
1
1
0
0
1
1
1
1
1
1
0
1
1
0
1
1
1
1
0
1
1
1
1
1
1
1
1
1
1
1
1
1
1
1
1
1
0
1
1
0
1
1
1
1
0
0
1
0
1
0
0
1
1
0
1
0
1
1
0
1
0
1
1
1
1
1
1
1
0
1
0
1
0
0
0
1
1
1
1
1
1
1
0
1
1
1
1
1
1
1
1
1
0
1
0
1
1
1
1
1
1
1
1
0
1
1
0
1
1
0
0
1
1
1
1
1
1
1
0
0
1
1
1
1
1
1
1
1
0
0
1
1
1
1
1
1
1
1
0
1
1
1
1
1
1
0
0
1
1
1
1
1
1
1
0
1
0
1
0
1
1
0
0
1
0
1
0
0
1
1
1
0
1
1
1
1
0
0
0
1
1
0
1
1
0
1
0
1
1
1
0
1
1
1
1
1
1
1
1
0
1
1
0
1
0
1
1
1
1
1
0
1
1
1
1
1
1
0
1
1
1
1
1
1
1
1
0
1
0
0
0
0
1
1
1
1
1
1
0
1
0
1
1
0
1
0
1
0
1
1
1
1
1
1
0
1
1
0
0
1
1
1
1
1
1
1
1
0
1
0
1
1
0
1
1
1
1
1
1
0
1
1
1
1
1
0
1
1
1
1
1
0
1
1
0
1
1
1
1
1
1
1
1
1
1
0
1
1
1
1
1
1
0
0
1
1
0
1
1
0
1
1
1
1
1
1
0
1
1
0
1
1
1
1
0
1
1
1
0
1
0
1
1
1
1
1
1
1
1
1
1
1
0
0
1
0
1
1
0
1
0
1
1
1
0
1
0
1
0
1
1
1
1
0
1
0
1
1
1
1
0
1
0
1
1
0
1
1
1
0
1
1
0
1
1
0
1
1
0
0
1
1
1
0
0
1
1
1
0
1
1
1
1
1
1
1
1
1
1
1
1
1
1
0
1
1
1
1
1
1
1
1
1
0
1
1
1
1
1
1
0
1
1
1
1
1
1
1
1
1
1
0
1
1
1
1
1
1
1
1
1
1
1
1
1
0
</DataArray>
<DataArray NumberOfComponents='1' type='Int32' Name='ParticleTetID' format='ascii'>
25737
-50400
25693
6916
-102510
95701
-69112
73112
13196
46757
8490
67329
5224
76310
9528
36175
62838
42680
14007
34579
-12127
101388
-98411
38301
-93293
-102840
42328
-91191
100560
82445
-34180
26345
67185
79701
95396
6439
-69112
-42296
61999
22755
89001
14939
50165
43602
-90119
72376
94294
-93119
42183
13532
90336
80251
-25302
100560
91755
36969
90739
32805
67280
31610
51716
-90337
39977
41428
46171
97058
60217
23311
16250
79286
-80727
65718
76375
-96019
80251
30799
2821
29563
-34180
-57434
92208
-57434
57013
-42296
-102510
80501
48228
-50400
59679
-69112
59354
93292
-104802
46699
-83399
64197
99903
7102
15289
6428
47669
97770
-96019
58761
-86274
-93119
-58762
-98765
-86274
31119
25772
62005
98069
-24526
9528
63328
-87306
2867
101245
23913
100821
74883
21759
95404
40951
75180
-98765
166
-17626
66629
51868
100092
66609
84369
10160
5705
103828
-104802
71190
70239
-95998
96192
1152
-12127
-70156
17000
25406
-70156
43723
50774
77145
20720
-83215
-102510
88101
47739
71644
36413
99903
85627
20543
67719
-96019
-17626
90255
20599
23227
51464
60897
105750
97137
77255
-102840
68338
92153
25293
101445
86134
79701
-102840
-91248
8772
6151
64053
101509
20789
84099
97137
-96849
51369
-96019
18130
-85990
-91248
72157
-69112
-83215
10885
-85990
86788
-102840
-83820
102318
77058
75771
-83215
100903
-90337
37982
55546
-34180
-104802
-98210
26221
72305
-69112
-98308
2821
-61396
80504
-70156
24605
94142
105884
-102840
97944
57859
91852
81798
44948
42084
69970
7338
-99021
35370
106069
-83399
78496
-104802
53172
47873
62464
9470
34113
-102510
35897
13486
74324
42483
82334
41844
-34180
35124
75999
24380
102882
16672
99980
95225
100807
-104802
100807
-42296
-93119
-98210
-42296
60291
11111
8112
95247
41768
85474
-94130
80847
-25302
-83399
10160
-99021
66911
-98411
83062
-96019
43418
14267
39126
85518
4087
101369
-96019
20582
15235
-61396
-34180
76839
54159
105913
44865
18987
90284
91755
6783
-24687
39230
-102840
84829
55197
-83399
104135
80723
60257
73863
67699
96694
-42296
28026
100092
26151
26547
45120
-57434
48486
51702
2991
10409
74099
-34180
101063
45420
-83215
61249
100092
79288
20235
71228
101354
103841
59538
13900
98826
-98411
4096
56892
78013
89793
35818
58761
-71594
-17626
14874
83970
-61396
40279
49095
-96849
72066
28735
12149
43383
89095
17956
-17626
44865
16493
-83820
43664
105714
46028
100743
-56272
105207
77808
77116
-91191
8538
-83215
21753
50188
77035
72663
37385
44866
32683
81341
86416
56466
43861
-70156
-34180
65257
-101044
66565
67718
-94130
48835
-42296
51896
75214
99809
-94130
62143
-93119
101509
-24687
46669
104057
54850
70678
-42296
48163
-83215
59731
42084
13008
95343
-94130
66349
-99096
47661
50511
-94130
6535
98386
13339
-91248
62214
9391
-92373
61083
28026
-102840
54175
51391
-102840
-24687
64850
17350
54543
-83399
-98210
44270
13360
12572
-34180
25772
11162
17025
87956
12647
27219
97981
56084
18095
65276
69843
85440
105913
59310
-50400
-42296
38510
18335
3581
21495
88021
16060
60897
33528
-95447
94947
45814
100560
2637
100848
87735
-96019
79904
101063
32957
166
3850
95063
11629
101063
96018
8596
-98411
70883
8596
25702
29686
56131
69618
46133
31552
33410
73246
75588
27959
7102
-102840
</DataArray>
<DataArray NumberOfComponents='3' type='Float32' Name='vels' format='ascii'>
6.582226 4.031487 0.017066
22.746117 0.571945 -0.290697
2.813786 -0.160965 -0.102681
18.985798 -1.948601 -0.028790
23.484112 -0.510887 0.083072
1.001254 -0.000311 0.004942
20.333378 0.277334 -0.621174
24.756340 0.004406 0.004337
6.962347 3.772572 0.009676
7.873923 1.491682 -0.020815
12.692008 -3.341427 0.000733
1.435510 -0.005070 0.009294
5.617345 1.757945 0.025102
4.457782 -0.149605 0.001018
17.271114 7.073418 0.005781
19.611070 -0.320002 -0.033225
28.997353 0.428370 -0.017135
24.420466 0.198668 0.044790
15.100830 0.754623 0.008935
19.439007 -0.145095 -0.061750
21.835456 0.067503 1.640637
-0.031662 0.044653 -0.004236
20.051412 -0.328575 -0.076616
2.012749 0.001613 -0.000255
18.297037 -0.214221 0.115799
22.591256 -0.226395 0.244628
4.046949 0.665881 -0.190020
21.418610 0.522880 0.667956
0.040413 0.043808 -0.011581
6.185997 0.046862 0.026304
22.058982 -0.221339 0.905368
2.986802 -0.057428 0.000125
7.653009 0.108575 0.038773
19.146427 -4.508564 -0.025247
12.465210 0.509030 -0.031508
26.066606 -0.405901 -0.024504
19.690416 0.183231 -1.354405
17.262796 -0.581290 -0.236368
12.615317 11.594837 -0.180909
23.715442 -0.087867 -0.040413
12.007629 -0.551583 0.021607
12.246897 -0.310085 -0.000269
2.368430 -0.022525 -0.000400
4.628090 -0.013569 -0.014852
23.253517 -0.506630 -0.243077
2.996595 -0.010077 -0.017293
0.013658 0.020204 -0.002105
21.234953 -0.478901 -0.021576
26.889947 0.235020 -0.059527
32.419009 -7.134073 -0.023272
19.605454 -0.017364 -0.083686
0.171092 -0.027312 0.011862
23.583462 0.705706 0.031841
0.190704 0.039631 -0.021271
5.806958 -0.144194 -0.001449
16.090989 -11.740933 0.063307
6.073614 0.226504 0.006470
5.476405 -6.177225 -0.094736
18.584980 -1.501043 -0.026754
10.515051 -0.328800 0.015756
13.418505 -3.568598 -0.028093
15.971599 0.661878 2.362355
10.230049 0.090394 0.121756
22.514669 -12.185742 -0.036082
28.218703 0.209011 -0.037796
1.353508 -0.002524 -0.000729
8.686084 -2.328917 0.008117
18.192695 -1.287868 -0.016635
4.340565 -0.397091 0.006714
22.542640 2.713309 -0.025174
20.829917 -0.376475 0.351593
4.691302 -1.698960 0.002992
3.654848 0.048029 0.043290
21.624399 0.251894 -0.102345
0.084453 0.008522 -0.000569
7.323849 1.958322 -0.000953
13.328088 -4.850517 0.003185
18.832547 -1.511175 0.144461
22.453575 -0.519201 0.546982
20.858756 -0.561026 1.745228
0.158147 -0.000027 -0.009432
22.318605 -0.637696 0.060034
17.903263 -0.049706 -0.104952
17.872999 -0.508012 -0.210598
21.544261 -0.576351 -0.237666
3.832623 -0.112526 -0.000308
6.823214 0.071159 0.031986
22.850020 0.504740 0.291769
17.279598 1.351527 0.011935
20.405083 0.175823 -1.416689
11.265801 2.189520 -0.011326
18.686419 -0.174850 -0.023656
22.928140 -0.721532 0.020940
28.359339 -0.099231 0.018265
21.674624 0.629290 -1.020716
0.686876 -0.010351 -0.002649
0.275095 0.044079 0.005711
18.794085 -3.063272 -0.015667
27.250171 -0.258995 0.005619
20.060534 -3.217824 0.010123
26.984745 0.763289 0.016662
0.031034 -0.009887 -0.027231
16.604183 0.954922 -1.554912
19.470374 0.631303 0.155298
22.200797 0.725471 -0.532589
19.328759 -0.349707 0.354440
19.388330 0.531497 -1.176200
23.505890 -0.017541 0.011079
21.587448 0.974728 -0.641169
16.314959 -0.661484 -0.051890
20.158987 0.908224 -0.139455
30.775224 0.478894 0.152077
2.226876 0.014628 0.000452
22.036278 0.624905 -0.469285
13.991310 6.276086 -0.006314
24.032422 0.414030 -0.038972
21.786999 -0.601339 -0.143358
17.852085 -1.314996 -0.035550
0.046053 0.006504 -0.018665
3.900561 0.365413 -0.322226
0.286896 0.006409 0.005720
17.114837 -6.751693 0.016714
21.688333 0.186474 0.067888
9.105449 0.294005 0.038652
24.194379 -8.326586 -0.016474
8.198595 0.629160 0.010823
23.130137 -0.019389 0.136113
18.820934 -7.430544 -0.001116
21.975496 -0.398811 0.347033
18.479637 -1.694847 -0.000088
8.618676 -1.101691 0.009831
0.107075 0.025728 -0.012169
20.247382 -0.468704 -0.113310
23.119918 0.187331 0.016825
18.531469 1.862622 0.089111
21.758109 6.654822 0.019756
25.295609 0.104823 -0.004877
23.078656 -0.988561 -0.027553
3.755855 0.005199 -0.011603
15.897189 0.112082 0.001024
22.910553 -0.665074 -0.024346
20.005402 -6.938794 0.007527
25.811420 -0.826459 -0.034509
23.086697 0.462772 0.127130
20.097993 -0.001831 0.998274
11.576199 0.130391 -0.017633
4.700527 -0.021612 0.040162
21.604291 0.016050 0.594368
27.416594 3.319703 0.025931
28.938186 0.072631 -0.018754
18.225711 2.395445 -0.004649
21.980600 1.352063 -0.020249
23.785807 0.531745 -0.031865
21.848852 0.420922 0.793156
10.835200 0.473381 0.022975
10.660971 0.332730 0.038716
8.615102 -0.056253 0.003256
6.707836 -4.609814 -0.005741
0.136367 -0.013772 0.023062
5.551302 1.453172 0.015089
4.137539 -0.381862 -0.008212
17.026994 1.327894 0.046320
19.581049 0.422816 -0.371368
23.074533 -0.332614 -0.039117
15.132624 -2.484876 0.005062
18.307815 -1.370852 -0.153137
18.063409 -2.595846 -0.005542
19.265633 -1.311616 0.138188
6.169990 -0.138350 0.062994
1.553996 -0.002840 0.006214
-0.028387 -0.003811 0.004120
16.650133 1.387410 0.042456
23.744358 -0.623742 0.078356
14.545192 6.576821 0.010998
20.736276 1.557389 -0.096629
17.988860 -1.914661 -0.070295
0.332677 -0.006734 0.004851
21.907871 -1.352849 0.001984
11.866958 -2.349581 -0.009381
22.731125 -0.410106 -0.267865
16.903104 -0.287756 -3.000994
15.507178 2.361493 -0.005139
24.995432 -5.754274 0.030298
16.071801 0.800713 0.012895
-0.093022 -0.000996 0.016974
18.590562 -1.952847 0.006263
24.643322 0.125934 -0.094438
0.050772 -0.000978 -0.008822
22.474392 0.693944 0.051149
4.062910 0.155375 -0.000363
16.990761 0.499263 -0.526326
9.509444 1.325549 0.002997
22.424382 0.267650 -0.125181
19.438241 -0.645570 0.307630
0.927857 0.017636 0.002804
19.790404 0.145941 -0.245545
23.805036 0.246133 -0.090822
10.116981 -0.219908 0.004569
17.974424 -0.188307 1.097113
6.949658 -0.680798 -0.032448
22.916248 -0.253452 -0.514480
18.818351 0.349067 -1.391396
5.063803 0.130996 -0.001337
17.055892 4.476817 0.026818
4.018945 -0.014734 0.014845
23.480659 0.156312 -0.174877
-0.166672 0.025056 -0.001597
18.643998 0.568643 0.689326
16.597450 0.657419 0.017026
3.095320 -0.020141 -0.000159
23.583081 -0.560089 0.024302
23.161558 -0.767744 -0.045548
20.291565 1.561776 -0.694303
17.739407 -1.171318 -0.023678
3.855097 -0.449750 -0.004038
21.410000 0.626257 0.310330
18.442322 0.652253 -0.220620
20.191686 -7.073303 0.017732
18.769647 0.377517 0.667154
1.011591 -0.002606 -0.003169
17.750980 -0.020871 0.508239
27.427003 -1.255637 -0.091143
8.634213 -1.055387 -0.018715
22.068796 -1.106685 0.078950
23.602854 -0.615112 0.038929
17.886176 -1.184417 -0.042341
2.321134 -0.142383 0.015056
4.753810 0.121631 0.001495
6.089814 -0.042993 -0.010072
20.630087 -9.299007 0.105391
20.557967 4.416339 0.048941
0.111181 -0.033409 0.010196
4.907860 0.143584 -0.000961
21.328316 0.562810 0.238438
9.636214 -0.372256 -0.004594
5.289419 0.007873 0.005430
22.195289 0.732663 -0.247530
8.556579 7.128419 -0.034278
22.344953 -0.609651 0.782143
8.654062 0.104679 -0.028035
10.373424 -0.240965 0.013168
25.438365 3.108886 -0.002027
17.169325 7.174660 0.010261
18.407389 8.521969 0.000117
23.606339 -0.372745 -0.031862
2.517184 0.011608 -0.230621
26.453770 -0.991370 0.051955
4.502103 0.025428 0.016959
11.719922 -1.283549 0.006517
8.038267 -0.465629 -0.003325
28.204345 0.710733 0.031862
21.838368 -0.661170 -0.191753
6.872407 0.095538 0.002618
16.137330 0.679920 0.054845
17.081025 -0.918256 0.004075
16.019582 -1.713883 -0.003237
30.991287 -13.742365 0.128664
-0.003633 0.000646 0.037907
1.892284 0.004416 -0.001228
-0.117446 0.038005 -0.008937
23.244983 -0.730652 -0.131282
0.190287 -0.038852 0.025187
20.722970 -0.207133 -0.102217
22.750940 -0.531753 0.033055
20.545453 -0.083357 -0.102342
20.285490 -0.903266 0.046184
4.552972 -0.087981 -0.000293
35.995341 10.470734 0.033922
18.952679 3.342876 0.006957
6.286623 0.494397 -0.004180
18.564593 -0.425659 0.206481
0.003603 -0.000050 -0.006661
22.049778 0.519534 -0.195881
21.620554 2.221175 -0.028461
23.087101 0.531150 0.110178
20.744513 0.554739 -1.416790
18.599445 2.850272 0.018677
22.952633 -0.348073 -0.012363
10.137344 -0.317663 0.000230
20.312842 -0.228192 -0.737240
17.687646 -1.134664 0.038213
18.423548 1.307541 -2.021391
16.701966 -1.103692 0.002077
24.719167 0.045172 -0.030118
31.840683 -1.117865 0.084328
7.904664 -1.757369 0.002703
20.519196 2.925823 0.019733
0.047570 0.000126 0.002617
20.159521 0.339274 -0.414015
10.185122 0.870623 0.000106
20.345963 2.466665 0.040922
21.204620 0.562607 -0.004813
21.937366 -0.464106 0.805875
3.197095 -0.167220 -0.005182
7.296887 -0.217661 -0.000585
27.166976 -0.073515 0.055618
17.829134 1.174340 -0.067433
22.926779 -0.317784 0.012334
30.116836 -6.963837 0.027712
5.884479 -0.369875 -0.002018
0.432931 2.531600 0.298967
20.779791 -0.017358 -0.071677
24.742239 -0.736410 -0.042006