<VTKFile type='UnstructuredGrid' version='1.0' byte_order='LittleEndian' header_type='UInt64'>
<UnstructuredGrid>
<Piece NumberOfCells='500' NumberOfPoints='500'>
<Points>
<DataArray NumberOfComponents='3' type='Float32' Name='Position' format='ascii'>
0.907460 0.710236 0.227018
2.041913 0.322548 0.117272
0.219535 0.979174 0.221585
1.900422 0.820140 0.184186
2.006422 0.772777 0.106364
0.111683 0.192229 0.246929
2.021840 0.236634 0.075397
1.421296 0.889399 0.209492
0.888265 0.703151 0.223888
0.810363 0.807396 0.228290
0.927792 0.170805 0.034887
0.190325 0.007058 0.058323
0.892547 0.590895 0.219270
0.504558 0.249676 0.237693
1.000853 0.819108 0.215197
2.029884 0.896507 0.149988
1.428626 0.158740 0.204230
1.329497 0.956640 0.161933
0.625060 0.803649 0.219031
2.028493 0.103892 0.112536
2.053310 0.240382 0.149626
0.011058 0.100665 0.236167
2.013011 0.752185 0.079681
0.208308 0.991253 0.150724
2.010016 0.889759 0.129730
2.047684 0.745451 0.119795
1.094664 0.493060 0.093137
2.034071 0.303870 0.160488
0.035376 0.848714 0.003957
0.616771 0.938369 0.220266
2.049422 0.718082 0.151819
0.434419 0.309621 0.242441
0.661660 0.962508 0.184858
1.880756 0.721763 0.181149
1.012643 0.974513 0.128998
1.436890 0.800294 0.203008
2.032977 0.238094 0.074622
2.000648 0.118576 0.122908
1.098538 0.785765 0.043851
1.441041 0.052078 0.067301
0.771205 0.077178 0.215456
0.465376 0.287545 0.239482
0.273987 0.292584 0.006884
0.452591 0.038116 0.031268
2.007880 0.710244 0.115067
0.096446 0.525633 0.008891
0.028338 0.127413 0.019945
2.001995 0.747523 0.166309
1.332211 0.959862 0.106037
1.618587 0.760914 0.199240
2.034140 0.855777 0.176953
0.022918 0.667782 0.224239
2.008327 0.295468 0.130869
0.038975 0.850076 0.003042
0.792296 0.469791 0.227714
1.033835 0.217417 0.208596
0.592349 0.862743 0.230308
0.964798 0.330352 0.039370
1.858196 0.914874 0.118135
0.764452 0.042034 0.165769
0.876438 0.189260 0.027002
2.033928 0.852710 0.179680
0.173628 0.993514 0.194313
1.732602 0.709661 0.190533
1.566673 0.799596 0.043974
0.156801 0.723988 0.003706
0.832416 0.334087 0.030381
1.903202 0.912074 0.127464
1.035809 0.065717 0.205678
1.905360 0.095892 0.155298
2.032726 0.151930 0.157049
0.870550 0.430666 0.026727
0.879097 0.971907 0.114517
2.012379 0.857800 0.088540
0.042316 0.652508 0.243642
0.842098 0.626434 0.028859
1.757972 0.734245 0.053987
2.006612 0.733044 0.069206
2.032027 0.708061 0.156368
2.047422 0.659033 0.158041
0.067687 0.208285 0.212276
2.008623 0.671327 0.150335
1.446963 0.949853 0.067805
2.000212 0.119345 0.120454
2.027649 0.788814 0.122788
0.466010 0.251994 0.238751
0.595012 0.967152 0.185473
2.037782 0.301018 0.135393
1.806855 0.071831 0.106119
2.037639 0.231862 0.074891
0.770690 0.613568 0.021924
2.043692 0.901627 0.126913
2.041219 0.688146 0.137356
1.311414 0.125086 0.040197
2.033186 0.327317 0.104475
0.094419 0.612828 0.248173
0.027735 0.559863 0.248552
1.849235 0.821237 0.195186
1.476344 0.903654 0.048514
1.099659 0.082386 0.201911
1.550112 0.156707 0.046022
0.029420 0.985962 0.174531
2.030091 0.839346 0.098504
2.033268 0.354557 0.077770
2.041484 0.819601 0.133527
2.016896 0.735843 0.177114
2.005133 0.350592 0.093012
2.030378 0.211665 0.125291
2.051344 0.818365 0.128576
1.123125 0.026982 0.115139
2.015030 0.096685 0.090606
1.569212 0.284747 0.184082
0.247563 0.908499 0.241490
2.022922 0.372593 0.103430
1.002600 0.820207 0.214623
1.523926 0.843757 0.040954
2.020701 0.649097 0.095229
1.877651 0.905134 0.170241
0.025097 0.993270 0.221352
1.072295 0.497943 0.071422
0.081234 0.042844 0.005505
0.991684 0.193436 0.212468
1.337267 0.953934 0.156337
1.680102 0.049871 0.123204
1.741705 0.750179 0.186917
0.782091 0.910637 0.028022
2.022575 0.188149 0.135854
1.776492 0.700344 0.191364
2.023163 0.803616 0.100864
1.178662 0.066539 0.037560
0.796734 0.140089 0.225457
0.012568 0.502955 0.223432
2.015481 0.887887 0.167531
1.515755 0.044232 0.148221
1.983553 0.350944 0.077143
1.753024 0.231932 0.052386
1.433754 0.207684 0.201684
2.018896 0.681016 0.127061
0.437038 0.984624 0.100243
0.653798 0.490330 0.234396
2.018782 0.639498 0.119193
1.682723 0.774499 0.048995
1.500227 0.188551 0.039864
2.020581 0.271387 0.143559
2.029636 0.772421 0.161292
0.559932 0.970507 0.189960
0.487833 0.017677 0.101899
2.030579 0.775512 0.178289
1.587843 0.195023 0.047407
1.437036 0.163930 0.039731
1.861096 0.105463 0.168888
1.243489 0.927226 0.207656
2.007401 0.237211 0.132114
2.043957 0.792899 0.145899
0.878919 0.967081 0.088831
0.767123 0.964558 0.174017
0.590531 0.037667 0.161694
0.928901 0.327996 0.034701
0.036015 0.567114 0.249210
0.849639 0.602726 0.224914
1.941790 0.720709 0.181100
0.884420 0.964685 0.176616
2.015580 0.844944 0.092940
2.035106 0.799893 0.114166
0.882066 0.106543 0.224678
2.022126 0.726487 0.178634
1.914526 0.840326 0.181982
2.017479 0.630500 0.093234
0.826248 0.039393 0.168581
0.566390 0.031886 0.168170
0.038894 0.987942 0.128955
1.886306 0.146123 0.064744
2.002765 0.755692 0.135449
1.043703 0.830992 0.216666
2.024452 0.367358 0.155246
1.979869 0.688758 0.179692
0.046844 0.985005 0.005586
2.043170 0.614473 0.123196
1.888902 0.727486 0.185145
2.054804 0.758295 0.109029
2.041637 0.681193 0.088195
0.971720 0.908609 0.041356
1.235584 0.170194 0.208938
1.061546 0.962665 0.174702
0.020180 0.016318 0.078849
1.820070 0.917491 0.089856
1.442151 0.946554 0.071286
0.038197 0.989406 0.138401
2.043955 0.337547 0.127159
0.562312 0.789787 0.238199
2.014167 0.830135 0.092786
1.891794 0.291737 0.062442
2.006074 0.222603 0.150129
2.012553 0.718654 0.076826
0.111287 0.879436 0.246513
2.014067 0.221852 0.075742
2.022074 0.220839 0.125137
0.705351 0.041198 0.158374
2.024098 0.190148 0.166427
1.089668 0.074566 0.036088
2.031926 0.750208 0.100893
2.032816 0.780082 0.070591
0.577476 0.903992 0.018704
1.789661 0.212232 0.055046
0.583833 0.030121 0.190043
2.032852 0.230892 0.118425
0.016434 0.159973 0.235128
2.019598 0.843053 0.176573
2.016902 0.101517 0.145640
0.445310 0.476226 0.240988
2.045287 0.712677 0.129932
2.035427 0.694947 0.126864
2.048916 0.864810 0.125488
1.880966 0.916721 0.124344
0.945859 0.065975 0.043595
2.035264 0.224157 0.103852
2.025508 0.345656 0.154944
1.766159 0.749197 0.063170
2.008734 0.276993 0.174787
0.143474 0.027022 0.023269
2.014314 0.785718 0.158959
1.463434 0.232084 0.058488
0.823340 0.120849 0.024717
2.027677 0.625261 0.106097
2.002812 0.754347 0.144586
0.976996 0.030261 0.127813
1.966178 0.667604 0.074633
0.629318 0.538230 0.014653
0.631131 0.023055 0.098505
1.208264 0.204952 0.204623
1.745786 0.171216 0.052956
0.040641 0.707649 0.241286
0.528023 0.600279 0.014521
2.037639 0.183166 0.137945
0.989709 0.044319 0.168985
0.314129 0.970076 0.215301
2.030415 0.333994 0.097299
1.028025 0.772896 0.033396
2.021489 0.647323 0.134533
0.613169 0.932347 0.206308
0.635704 0.106095 0.021249
1.281216 0.814325 0.210243
1.793562 0.329733 0.063759
1.780162 0.305785 0.186664
2.017192 0.772864 0.111412
1.011532 0.502385 0.059029
1.390598 0.819203 0.042756
0.394568 0.980059 0.160070
0.893765 0.088634 0.213903
0.613658 0.201301 0.024372
1.506045 0.801365 0.202222
2.005690 0.712882 0.141472
0.698898 0.978975 0.142674
1.118615 0.971095 0.115496
1.935956 0.910002 0.135688
0.770349 0.387349 0.228095
1.638550 0.649670 0.096587
0.033292 0.995007 0.046159
0.197821 0.792750 0.005618
0.006921 0.622930 0.215321
2.007652 0.682386 0.138880
0.039525 0.620025 0.243294
2.005989 0.126293 0.114610
2.008474 0.747795 0.153841
2.001298 0.857592 0.150809
2.025124 0.119820 0.148109
0.464757 0.392932 0.013170
1.639522 0.338744 0.107360
1.974896 0.314930 0.075131
0.638151 0.790589 0.232734
2.013345 0.882962 0.090390
0.036794 0.189522 0.013783
2.015784 0.275097 0.093220
2.010821 0.308547 0.173000
2.033909 0.289244 0.112282
2.042875 0.331086 0.077792
1.938908 0.336702 0.073450
2.034917 0.195737 0.108191
1.798839 0.925642 0.104322
2.027577 0.749487 0.077519
1.954196 0.885951 0.083291
2.043238 0.860607 0.086299
1.121829 0.068621 0.037739
1.410157 0.957710 0.105801
1.540133 0.226779 0.199553
1.023626 0.115085 0.028474
1.835925 0.105293 0.070452
0.092827 0.964750 0.238931
2.018576 0.840891 0.076544
0.676021 0.759921 0.030970
1.152238 0.925011 0.211541
2.003428 0.277166 0.164066
2.040073 0.728954 0.132857
0.853246 0.467912 0.210591
0.688258 0.060863 0.033859
1.331172 0.829335 0.037456
1.954016 0.098050 0.148536
1.252028 0.103902 0.037451
1.591792 0.663067 0.109449
0.781035 0.480462 0.227220
1.005057 0.615424 0.175126
2.010992 0.147421 0.096275
1.534758 0.887043 0.208507
2.038118 0.748146 0.141266
1.231154 0.813925 0.215087
1.550950 0.167846 0.043094
2.038461 0.336184 0.102265
1.134572 0.970191 0.123763
0.649455 0.134661 0.028524
1.058487 0.953913 0.068730
1.796317 0.227156 0.060140
0.712584 0.486196 0.017349
1.112115 0.954598 0.079729
2.026656 0.128085 0.135971
1.714180 0.068931 0.150904
0.013795 0.509914 0.234927
1.521330 0.188104 0.041702
0.719960 0.291308 0.232800
1.610067 0.945254 0.117913
2.012230 0.680055 0.167305
1.574001 0.816147 0.043843
2.025570 0.769084 0.186028
1.171686 0.804921 0.034841
0.416183 0.981636 0.196744
0.039321 0.425877 0.016635
2.002534 0.716035 0.146029
0.028992 0.374245 0.239569
0.753212 0.054801 0.037985
2.028122 0.221336 0.119898
1.953790 0.312144 0.179458
0.013652 0.514486 0.242391
0.553557 0.432742 0.228864
0.524025 0.035693 0.043442
1.865591 0.095003 0.077197
0.008068 0.605355 0.000033
1.774037 0.084857 0.076943
1.002876 0.720902 0.042260
1.064175 0.801571 0.032058
0.008160 0.280162 0.235648
2.048770 0.749451 0.090866
1.976935 0.788983 0.188167
0.934345 0.612322 0.041262
1.878705 0.099428 0.168100
0.628783 0.966505 0.068143
0.086504 0.134827 0.025894
2.016937 0.339622 0.074967
0.018953 0.890552 0.250145
2.000588 0.799573 0.125313
1.576398 0.696511 0.067350
1.132839 0.780752 0.203571
2.028930 0.271324 0.174884
1.157104 0.065318 0.042657
0.069385 0.981183 0.215846
2.026492 0.348990 0.140628
0.725951 0.911203 0.225972
1.762538 0.617238 0.081253
0.202099 0.009414 0.207631
1.631442 0.944515 0.137527
1.399139 0.919335 0.205847
1.043416 0.934894 0.043445
2.025588 0.792722 0.125310
1.949592 0.084639 0.137919
0.608252 0.954821 0.202273
2.006244 0.790524 0.087015
0.426183 0.026960 0.041224
0.474745 0.020366 0.164443
1.006099 0.401764 0.073862
0.017724 0.746239 0.011336
2.007610 0.172173 0.078813
1.116843 0.139985 0.214166
1.023253 0.488606 0.058914
0.030768 0.532194 0.227958
2.020352 0.301361 0.168629
0.922070 0.899066 0.035750
2.054257 0.245705 0.112442
1.032651 0.453299 0.107576
1.750952 0.910729 0.181967
1.019512 0.086222 0.216563
1.715812 0.309350 0.188091
1.366506 0.964456 0.141626
1.948613 0.101760 0.102598
1.723207 0.092938 0.184828
0.501329 0.034348 0.212587
1.916220 0.106361 0.174152
1.724746 0.379199 0.145457
0.754460 0.961912 0.087224
2.020001 0.799353 0.160508
2.012249 0.715509 0.135389
0.537509 0.979241 0.093545
0.034259 -0.000089 0.183998
1.458243 0.934786 0.057053
0.432742 0.484212 0.008543
2.047931 0.313367 0.104281
1.734969 0.339362 0.189268
2.033696 0.125638 0.135117
0.931481 0.749214 0.028373
1.099277 0.069607 0.210692
0.083840 0.983547 0.021313
2.001362 0.282336 0.081177
0.863527 0.404817 0.219973
2.016776 0.724579 0.168284
0.015163 0.013617 0.083001
2.007751 0.161367 0.097244
0.164193 0.957958 0.016635
1.585300 0.940637 0.077794
0.991769 0.064798 0.207575
1.320471 0.806040 0.206829
2.023007 0.116935 0.149028
1.725822 0.705283 0.193676
2.049318 0.245117 0.121517
0.974513 0.325422 0.209030
1.727106 0.179811 0.050526
1.000256 0.040402 0.174497
0.269738 0.989499 0.170220
2.017891 0.273142 0.089601
0.756555 0.065485 0.033747
2.001818 0.350240 0.144337
2.018226 0.826991 0.177203
1.038655 0.512757 0.189573
2.040798 0.271093 0.087862
1.761575 0.812151 0.053271
0.536866 0.095474 0.018680
0.737356 0.914029 0.220091
2.010548 0.695931 0.089083
1.363992 0.205590 0.199413
1.378395 0.772131 0.055865
2.024173 0.282589 0.075697
0.942789 0.764992 0.224619
1.731361 0.081582 0.160399
2.039833 0.740614 0.110457
1.655481 0.323891 0.070920
0.604038 0.035298 0.194059
2.035768 0.751377 0.149175
2.021132 0.167951 0.105210
1.487097 0.258113 0.133704
0.668597 0.543977 0.015968
1.476302 0.202365 0.200206
2.033975 0.332578 0.095046
2.024310 0.858399 0.143123
0.797529 0.369257 0.024816
1.840554 0.071941 0.119899
1.600630 0.872100 0.044054
2.033033 0.715423 0.127692
1.999360 0.097805 0.089307
1.235327 0.266627 0.110027
1.710402 0.228150 0.048530
1.819613 0.178913 0.196809
1.447987 0.068681 0.201211
1.896363 0.919776 0.113238
0.221188 0.617637 0.003350
0.075863 0.685653 0.247848
1.685749 0.078712 0.182300
1.088266 0.149917 0.031027
1.800022 0.364836 0.077528
0.225690 0.638816 0.012062
1.329278 0.832213 0.042803
0.970767 0.205263 0.220417
2.019767 0.325567 0.131726
2.010451 0.114133 0.153634
1.111743 0.206377 0.210956
0.388219 0.024692 0.040847
1.424347 0.915668 0.044006
1.915249 0.661727 0.177375
0.040463 0.572654 0.014628
0.862665 0.537315 0.218485
0.830856 0.037828 0.161459
0.810463 0.067061 0.213875
2.024197 0.296343 0.159639
0.826614 0.731649 0.020596
2.003979 0.189402 0.181230
0.042741 0.851070 0.001269
0.937302 0.891881 0.221424
0.143997 0.953290 0.011952
0.121560 0.003760 0.208296
2.007821 0.839730 0.099613
1.277706 0.064180 0.200330
0.028254 0.374813 0.238617
1.001428 0.920394 0.035752
1.763230 0.693912 0.194904
1.104499 0.508479 0.127093
0.040984 0.940003 0.001205
1.548122 0.190986 0.206458
0.019111 0.387121 0.244899
2.042207 0.866436 0.076275
0.698100 0.950938 0.052405
2.005977 0.763890 0.090744
1.018468 0.495469 0.057567
0.684329 0.953314 0.052345
1.441318 0.229682 0.056686
1.405164 0.786066 0.204219
1.233086 0.955797 0.089645
1.154436 0.968462 0.109084
0.477781 0.976657 0.072271
0.469385 0.019986 0.056815
0.653829 0.034860 0.175320
1.726613 0.068300 0.158887
1.889304 0.164343 0.184943
1.425963 0.075508 0.200191
1.863057 0.832642 0.185775
2.009141 0.738372 0.125480
</DataArray>
</Points>
<PointData>
<DataArray NumberOfComponents='1' type='Int32' Name='ParticleType' format='ascii'>
1
1
1
1
1
1
1
1
1
1
1
1
1
1
1
1
1
1
1
1
1
1
1
1
1
1
1
1
1
1
1
1
1
1
1
1
1
1
1
1
1
1
1
1
1
1
1
1
1
1
1
1
1
1
1
1
1
1
1
1
1
1
1
1
1
1
1
1
1
1
1
1
1
1
1
1
1
1
1
1
1
1
1
1
1
1
1
1
1
1
1
1
1
1
1
1
1
1
1
1
1
1
1
1
1
1
1
1
1
1
1
1
1
1
1
1
1
1
1
1
1
1
1
1
1
1
1
1
1
1
1
1
1
1
1
1
1
1
1
1
1
1
1
1
1
1
1
1
1
1
1
1
1
1
1
1
1
1
1
1
1
1
1
1
1
1
1
1
1
1
1
1
1
1
1
1
1
1
1
1
1
1
1
1
1
1
1
1
1
1
1
1
1
1
1
1
1
1
1
1
1
1
1
1
1
1
1
1
1
1
1
1
1
1
1
1
1
1
1
1
1
1
1
1
1
1
1
1
1
1
1
1
1
1
1
1
1
1
1
1
1
1
1
1
1
1
1
1
1
1
1
1
1
1
1
1
1
1
1
1
1
1
1
1
1
1
1
1
1
1
1
1
1
1
1
1
1
1
1
1
1
1
1
1
1
1
1
1
1
1
1
1
1
1
1
1
1
1
1
1
1
1
1
1
1
1
1
1
1
1
1
1
1
1
1
1
1
1
1
1
1
1
1
1
1
1
1
1
1
1
1
1
1
1
1
1
1
1
1
1
1
1
1
1
1
1
1
1
1
1
1
1
1
1
1
1
1
1
1
1
1
1
1
1
1
1
1
1
1
1
1
1
1
1
1
1
1
1
1
1
1
1
1
1
1
1
1
1
1
1
1
1
1
1
1
1
1
1
1
1
1
1
1
1
1
1
1
1
1
1
1
1
1
1
1
1
1
1
1
1
1
1
1
1
1
1
1
1
1
1
1
1
1
1
1
1
1
1
1
1
1
1
1
1
1
1
1
1
1
1
1
1
1
1
1
1
1
1
1
1
1
1
1
1
1
1
1
1
1
1
1
1
1
1
1
1
1
1
1
1
1
1
1
1
1
1
1
1
1
1
1
1
1
1
1
1
1
1
1
1
</DataArray>
<DataArray NumberOfComponents='1' type='Int32' Name='ParticleID' format='ascii'>
0
1
2
3
4
5
6
7
8
9
10
11
12
13
14
15
16
17
18
19
20
21
22
23
24
25
26
27
28
29
30
31
32
33
34
35
36
37
38
39
40
41
42
43
44
45
46
47
48
49
50
51
52
53
54
55
56
57
58
59
60
61
62
63
64
65
66
67
68
69
70
71
72
73
74
75
76
77
78
79
80
81
82
83
84
85
86
87
88
89
90
91
92
93
94
95
96
97
98
99
100
101
102
103
104
105
106
107
108
109
110
111
112
113
114
115
116
117
118
119
120
121
122
123
124
125
126
127
128
129
130
131
132
133
134
135
136
137
138
139
140
141
142
143
144
145
146
147
148
149
150
151
152
153
154
155
156
157
158
159
160
161
162
163
164
165
166
167
168
169
170
171
172
173
174
175
176
177
178
179
180
181
182
183
184
185
186
187
188
189
190
191
192
193
194
195
196
197
198
199
200
201
202
203
204
205
206
207
208
209
210
211
212
213
214
215
216
217
218
219
220
221
222
223
224
225
226
227
228
229
230
231
232
233
234
235
236
237
238
239
240
241
242
243
244
245
246
247
248
249
250
251
252
253
254
255
256
257
258
259
260
261
262
263
264
265
266
267
268
269
270
271
272
273
274
275
276
277
278
279
280
281
282
283
284
285
286
287
288
289
290
291
292
293
294
295
296
297
298
299
300
301
302
303
304
305
306
307
308
309
310
311
312
313
314
315
316
317
318
319
320
321
322
323
324
325
326
327
328
329
330
331
332
333
334
335
336
337
338
339
340
341
342
343
344
345
346
347
348
349
350
351
352
353
354
355
356
357
358
359
360
361
362
363
364
365
366
367
368
369
370
371
372
373
374
375
376
377
378
379
380
381
382
383
384
385
386
387
388
389
390
391
392
393
394
395
396
397
398
399
400
401
402
403
404
405
406
407
408
409
410
411
412
413
414
415
416
417
418
419
420
421
422
423
424
425
426
427
428
429
430
431
432
433
434
435
436
437
438
439
440
441
442
443
444
445
446
447
448
449
450
451
452
453
454
455
456
457
458
459
460
461
462
463
464
465
466
467
468
469
470
471
472
473
474
475
476
477
478
479
480
481
482
483
484
485
486
487
488
489
490
491
492
493
494
495
496
497
498
499
</DataArray>
<DataArray NumberOfComponents='1' type='Int8' Name='IsActive' format='ascii'>
1
0
1
1
0
1
0
1
1
1
1
1
1
1
1
0
1
1
1
0
0
1
0
1
0
0
1
0
1
1
0
1
1
1
1
1
0
0
1
1
1
1
1
1
0
1
1
0
1
1
0
1
0
1
1
1
1
1
1
1
1
0
1
1
1
1
1
1
1
1
0
1
1
0
1
1
1
1
0
0
1
0
1
0
0
1
1
0
1
0
1
0
0
1
0
1
1
1
1
1
1
1
0
0
0
0
0
0
0
1
1
1
1
0
1
1
0
1
1
1
1
1
1
1
1
1
0
1
0
1
1
1
0
1
1
1
1
0
1
1
0
1
1
0
0
1
1
0
1
1
1
1
0
0
1
1
1
1
1
1
1
1
0
0
1
1
1
1
1
1
1
1
0
1
1
1
1
1
1
0
0
1
1
1
1
1
1
1
0
1
0
1
0
0
1
0
0
1
0
1
0
0
1
1
1
0
1
0
1
1
0
0
0
1
1
0
0
1
0
1
0
1
1
0
0
1
1
1
1
1
1
1
1
0
1
1
0
1
0
1
1
1
1
1
0
1
1
1
1
1
1
0
1
1
1
1
1
1
1
1
0
1
0
0
0
0
1
1
1
1
0
1
0
1
0
0
1
0
1
0
1
0
1
1
1
1
1
1
0
1
1
0
0
1
1
1
1
1
1
1
1
0
1
0
1
1
0
1
1
1
1
1
1
0
1
1
1
1
1
0
1
1
1
1
1
0
1
1
0
1
1
1
1
1
1
1
1
1
1
0
1
1
1
1
1
0
0
0
1
1
0
1
1
0
1
1
1
1
1
1
0
1
1
0
1
1
1
1
0
1
1
1
0
1
0
1
1
1
1
1
1
1
1
1
1
1
0
0
1
0
1
1
0
1
0
1
1
1
0
1
0
1
0
1
1
1
1
0
1
0
1
1
1
1
0
1
0
1
1
0
1
1
1
0
1
1
0
1
1
0
1
1
0
0
1
1
1
0
0
1
1
1
0
1
1
1
1
1
1
1
1
1
1
1
1
1
1
0
0
1
1
1
1
1
1
1
1
0
1
1
1
1
1
1
0
1
1
1
1
1
1
1
1
0
1
0
1
1
1
1
1
1
1
1
1
1
1
1
1
0
</DataArray>
<DataArray NumberOfComponents='1' type='Int32' Name='ParticleTetID' format='ascii'>
9551
-50400
93885
26276
-102510
95701
-69112
68129
25737
20698
39654
67329
5100
37995
24131
-93293
39864
64177
55313
-98831
-12127
101388
-98411
83
-93293
-102840
54016
-91191
100560
60729
-34180
64101
52841
78537
84966
16154
-69112
-42296
4687
30897
33528
48661
50165
31552
-90119
65233
94294
-93119
92745
42312
-90337
80251
-25302
100560
99049
4757
61880
31537
12537
60897
19870
-90337
39977
25760
74958
97058
59130
10813
75214
65872
-80727
78701
97047
-96019
80251
10791
49356
-98411
-34180
-57434
82905
-57434
58743
-42296
-102510
76310
99361
-50400
74904
-69112
89279
-93293
-104802
70122
-83399
64197
99903
48297
101929
49538
73235
66170
-96019
-58762
-86274
-93119
-58762
-98765
-86274
97497
-96731
53820
98069
-24526
24131
64386
-87306
68684
101245
59900
100821
30261
64177
50556
16641
80653
-98765
79701
-17626
36655
36604
100092
-96325
78623
58761
41417
54289
-104802
71190
94459
-95998
2821
77251
-12127
-70156
16493
38350
-70156
5682
13410
15240
25790
-83215
-102510
55298
24208
53426
48667
99903
48942
20599
96718
-96019
-17626
90160
-39168
57016
-74393
23270
105750
97137
39808
-102840
44175
-93819
23763
99126
-96354
4523
-102840
-91248
46980
25999
4873
101509
27219
58743
97137
-96849
17238
-96019
10884
-85990
-91248
72157
-69112
-83215
28746
-85990
34019
-102840
-83820
102317
48232
39649
-83215
100903
-90337
-98831
63869
-34180
-104802
-98210
10813
77385
-69112
-98308
28578
-61396
80504
-70156
73057
20066
-74393
-102840
40126
51198
22181
89797
88027
79334
69970
7338
-99021
708
106070
-83399
52178
-104802
60729
41588
6710
20546
28085
-102510
52585
76750
74324
72879
99478
60516
-34180
20677
85165
5529
8568
75587
99980
99975
100807
-104802
77033
-42296
-93119
-98210
-42296
23879
78888
83398
100160
-96019
85474
-94130
-91191
-25302
-83399
103055
-99021
25193
-98411
41768
-96019
37045
105160
59858
72240
41962
101369
-96019
66270
30035
-61396
-34180
77893
45420
47907
37982
105821
18624
86706
17788
-24687
19
-102840
63858
81650
-83399
66818
54788
65222
85035
105946
56131
-42296
5470
100092
30707
19839
74140
-57434
96192
-94146
46930
10409
74099
-34180
101063
47309
-83215
91190
100092
27512
12438
41229
101354
59807
13528
22578
98826
-98411
51702
9433
15240
65486
9177
-58762
-71594
-17626
38152
37056
-61396
29546
49095
-96849
72607
50997
12149
9312
38683
68355
-17626
37982
41621
-83820
43664
105714
48993
100743
-56272
54807
24975
41155
-91191
32957
-83215
21753
14589
75995
94241
94401
13059
5470
85963
6200
77009
12535
-70156
-34180
12848
-101044
47870
24893
-94130
80050
-42296
103082
85702
99809
-94130
73874
-93119
101509
-24687
55374
68629
71248
22813
-42296
25760
-83215
97203
77058
79891
39671
-94130
52281
-99096
-69862
59771
-94130
8798
51449
72607
-91248
38359
1300
-92373
50655
48793
-102840
51342
46691
-102840
-24687
72889
67333
35560
-83399
-98210
69501
61257
103763
-34180
96730
44677
56231
53180
15947
10813
97981
56084
3699
53267
38451
85440
36772
25161
-50400
-42296
61558
2467
33772
58914
88021
31342
23270
45199
-95447
19507
-99721
100560
63379
77568
87735
-96019
27959
101063
37705
25760
50701
95063
79115
101063
-96019
12184
-98411
74653
12184
72334
102105
42183
86892
21282
31552
12026
102062
41651
72436
13478
-102840
</DataArray>
<DataArray NumberOfComponents='3' type='Float32' Name='vels' format='ascii'>
6.826142 4.677436 -0.002433
22.746117 0.571945 -0.290697
2.354116 -0.008017 0.001977
18.391257 -0.829303 -0.178143
23.484112 -0.510887 0.083072
1.032068 -0.005528 -0.000003
20.333378 0.277334 -0.621174
25.013300 -0.717022 -0.032321
1.921624 1.310032 0.002366
8.186501 1.865704 0.002244
15.112284 -4.673270 -0.023853
1.416126 -0.005442 0.008245
4.761984 2.796611 0.000624
7.258069 -0.338610 0.002288
17.313331 6.704125 0.016297
20.644419 -0.244898 0.011251
28.677412 0.823603 0.012141
24.141346 0.017331 -0.017042
10.146906 0.793148 -0.006384
19.044396 -1.244907 -0.238396
21.835456 0.067503 1.640637
-0.054596 0.041104 -0.003540
20.051412 -0.328575 -0.076616
2.288108 0.023090 -0.016977
18.297037 -0.214221 0.115799
22.591256 -0.226395 0.244628
5.524037 0.595694 -0.136915
21.418610 0.522880 0.667956
0.224012 0.023584 -0.020694
6.454632 0.205395 0.009580
22.058982 -0.221339 0.905368
15.738250 -0.426390 0.002494
8.207061 0.140032 0.022836
17.910449 -1.705752 -0.088145
13.984816 0.443365 -0.020305
28.380328 -1.175312 0.048454
19.690416 0.183231 -1.354405
17.262796 -0.581290 -0.236368
22.077157 8.417250 -0.103810
22.838136 0.467544 0.103415
9.191467 -0.594865 0.035950
3.794040 -0.165479 0.000341
2.404118 -0.024405 -0.000501
3.199870 -0.020182 -0.006117
23.253517 -0.506630 -0.243077
3.076551 -0.011731 -0.013383
0.056686 0.024069 -0.002540
21.234953 -0.478901 -0.021576
20.124665 0.016460 -0.014104
20.717318 -9.457337 -0.027311
15.641460 0.592641 2.478244
0.000707 -0.027351 0.007654
23.583462 0.705706 0.031841
0.123183 0.048218 -0.016710
5.339826 -0.460607 -0.002214
17.923121 -10.359551 0.111819
6.430690 0.305463 0.002917
5.602611 -7.488955 -0.150226
18.645643 -0.930515 -0.018244
11.059036 -0.358754 0.055430
15.725268 -4.537821 0.024105
15.971599 0.661878 2.362355
1.516969 -0.000295 -0.005703
18.626424 -6.027494 -0.015221
36.381143 -8.502759 0.036409
1.345414 -0.004157 -0.000814
7.630237 -3.548437 0.011592
15.638512 -0.592786 0.032395
17.303984 -1.210698 0.061898
19.709571 0.929681 -0.111952
20.829917 -0.376475 0.351593
1.928969 -0.898286 0.002243
11.020451 0.389437 0.019940
21.624399 0.251894 -0.102345
0.081286 0.008273 0.000174
6.899231 2.940564 -0.014152
6.048731 -1.632012 -0.008249
16.029687 -0.488661 0.199500
22.453575 -0.519201 0.546982
20.858756 -0.561026 1.745228
11.112867 0.391243 0.127897
22.318605 -0.637696 0.060034
23.045791 -0.666538 0.125685
17.872999 -0.508012 -0.210598
21.544261 -0.576351 -0.237666
3.905145 -0.113300 -0.000092
9.270272 0.152781 0.006588
22.850020 0.504740 0.291769
17.013837 1.022259 -0.024667
20.405083 0.175823 -1.416689
6.084710 1.324203 0.001060
18.397170 2.312845 0.926571
22.928140 -0.721532 0.020940
25.213614 -0.018480 -0.012568
21.674624 0.629290 -1.020716
0.602149 -0.011967 -0.002586
0.227216 0.043210 0.008677
16.667498 -1.885621 -0.026369
5.883836 -0.167493 -0.049700
24.040355 -1.982992 0.101553
23.153439 6.771850 0.015765
-0.021975 -0.012550 -0.024826
16.604183 0.954922 -1.554912
16.518350 0.455337 -2.328386
22.200797 0.725471 -0.532589
19.328759 -0.349707 0.354440
19.388330 0.531497 -1.176200
23.505890 -0.017541 0.011079
21.587448 0.974728 -0.641169
25.053340 -1.061944 -0.015786
16.482712 -1.531327 -0.673981
19.355884 13.542742 -0.148446
2.169483 0.011802 0.001006
22.036278 0.624905 -0.469285
17.720784 6.811661 0.016691
32.052422 -4.791314 0.028451
21.786999 -0.601339 -0.143358
16.037086 -0.860321 -0.042986
0.019251 0.005186 -0.015111
4.736034 0.333900 -0.275024
0.266912 0.004409 0.004783
14.702229 -7.370229 0.010094
26.431348 0.069979 0.014528
16.059142 1.004018 -0.032197
19.015433 -5.655896 -0.023491
8.967642 0.954825 -0.072202
23.130137 -0.019389 0.136113
16.419256 -4.352991 -0.010452
21.975496 -0.398811 0.347033
23.904548 -0.522247 0.009750
8.912925 -1.281071 0.006642
-0.011915 0.024745 -0.008256
17.775444 0.811653 0.366037
21.055252 0.896647 -0.099644
20.210643 0.704044 0.262118
17.092562 4.377382 0.018942
28.686616 0.582202 0.091316
23.078656 -0.988561 -0.027553
3.843310 0.010554 -0.009097
4.798291 -0.057018 0.000097
22.910553 -0.665074 -0.024346
19.187235 -6.043242 0.033677
24.232865 4.611523 0.024832
23.086697 0.462772 0.127130
20.097993 -0.001831 0.998274
5.787530 0.046442 0.019980
4.752037 -0.009924 -0.002054
21.604291 0.016050 0.594368
19.170032 6.485203 0.024552
27.036596 1.332322 -0.006907
17.584648 1.158725 -0.054322
22.577174 0.198006 0.108812
23.785807 0.531745 -0.031865
21.848852 0.420922 0.793156
11.462990 0.538421 -0.052066
9.521281 0.273461 0.050562
8.722278 -0.093212 0.013149
7.840150 -8.314057 -0.102211
0.142596 -0.013360 0.023625
5.328023 2.299966 -0.002630
18.422780 -1.181818 -0.209801
11.439911 0.516897 -0.009559
19.581049 0.422816 -0.371368
23.074533 -0.332614 -0.039117
10.102844 -1.502983 0.029736
16.564731 -0.331065 1.203524
17.866651 -1.049167 -0.095057
21.597133 -0.714607 0.164443
11.910283 -0.542149 0.010993
0.697681 -0.000546 0.003938
0.063874 -0.006435 -0.001001
17.005145 1.224315 0.091919
23.744358 -0.623742 0.078356
19.254440 6.159281 0.017597
21.550093 0.597724 0.177560
18.148816 -0.696571 -0.394330
0.011861 0.000000 -0.000376
22.186483 -0.580909 0.085191
19.751039 -1.801156 -0.086202
22.731125 -0.410106 -0.267865
16.903104 -0.287756 -3.000994
19.648398 3.282262 -0.024261
24.782109 0.505784 -0.012018
16.098881 0.628717 0.128864
-0.146533 -0.000286 0.012114
16.543388 -1.018959 0.041450
25.116003 -0.808337 0.124913
0.051284 -0.000905 -0.008340
22.474392 0.693944 0.051149
15.190184 0.708805 0.001079
16.990761 0.499263 -0.526326
17.172607 1.825936 0.051141
22.424382 0.267650 -0.125181
19.438241 -0.645570 0.307630
0.951905 0.014930 0.001829
19.790404 0.145941 -0.245545
23.805036 0.246133 -0.090822
2.811174 -0.020810 0.011316
17.974424 -0.188307 1.097113
19.396644 -1.353445 -0.030843
22.916248 -0.253452 -0.514480
18.818351 0.349067 -1.391396
5.388303 0.169937 0.002329
17.512348 3.642209 0.000354
8.458544 -0.070112 0.012057
23.480659 0.156312 -0.174877
0.002467 0.042256 -0.005300
18.643998 0.568643 0.689326
18.384430 -0.878138 0.303210
3.076409 -0.006293 0.000205
23.583081 -0.560089 0.024302
23.161558 -0.767744 -0.045548
20.291565 1.561776 -0.694303
17.214585 -0.809785 -0.017154
9.647035 -0.407696 -0.050850
21.410000 0.626257 0.310330
18.442322 0.652253 -0.220620
18.841515 -4.294683 0.012194
18.769647 0.377517 0.667154
0.528682 -0.001319 -0.004275
17.750980 -0.020871 0.508239
30.625314 3.803831 -0.017646
8.961917 -1.164089 0.003012
20.417662 -0.645471 0.231195
23.602854 -0.615112 0.038929
14.296506 -0.698315 0.051479
17.796357 -1.001555 0.183535
4.801424 0.126142 0.000422
13.099036 -0.314539 -0.028915
28.801130 -0.338723 -0.084949
18.056123 3.861260 0.025300
-0.128204 -0.030844 0.004265
4.955784 0.172965 -0.001063
21.328316 0.562810 0.238438
18.150536 -1.179674 0.000417
3.334073 0.000305 -0.004124
22.195289 0.732663 -0.247530
13.506268 7.563507 -0.085733
22.344953 -0.609651 0.782143
8.905596 0.236052 0.026659
10.933457 -0.401376 -0.013510
20.342644 -0.526310 -0.022304
16.398989 3.906680 0.025408
21.122995 3.793924 -0.023649
23.606339 -0.372745 -0.031862
2.195252 -0.001531 -0.207847
27.178904 0.736277 -0.067260
4.153772 0.008703 0.010808
14.585980 -1.621540 0.024573
8.063214 -0.607420 0.001738
32.645649 -6.554013 -0.023652
21.838368 -0.661170 -0.191753
15.035093 0.595048 0.010924
19.212600 0.428783 0.053932
17.219666 -0.600939 0.022561
6.042445 -1.385943 -0.001323
18.127788 -12.658214 0.023858
-0.078532 0.000450 0.024365
1.914798 0.006577 0.000780
-0.130904 0.036976 -0.007543
23.244983 -0.730652 -0.131282
-0.012487 -0.045511 0.001399
20.722970 -0.207133 -0.102217
22.750940 -0.531753 0.033055
20.545453 -0.083357 -0.102342
20.285490 -0.903266 0.046184
4.693972 -0.105336 -0.000654
19.710748 12.807388 0.015741
19.011635 0.776346 0.341965
6.103717 0.570512 -0.000600
18.274489 0.518023 -0.272507
-0.083972 -0.004525 -0.003448
22.049778 0.519534 -0.195881
19.783170 0.573937 0.196976
23.087101 0.531150 0.110178
20.744513 0.554739 -1.416790
18.050715 1.370480 0.131832
22.952633 -0.348073 -0.012363
16.791836 -1.050270 0.009437
20.312842 -0.228192 -0.737240
17.454566 -0.535707 0.187324
18.423548 1.307541 -2.021391
11.397055 -0.499575 -0.071912
23.688971 -0.278230 0.042848
26.567373 8.744801 -0.038764
16.717740 -3.386777 -0.006903
18.628472 1.453648 0.038561
0.060937 0.000165 0.002476
20.159521 0.339274 -0.414015
10.204815 1.232667 -0.008172
20.253491 0.691533 0.085458
21.204620 0.562607 -0.004813
21.937366 -0.464106 0.805875
2.188862 -0.275234 0.010915
3.006308 -0.074897 -0.036687
20.689931 0.899710 -0.040156
16.284077 0.526519 -0.076021
12.114367 0.028971 -0.019038
19.146230 -16.078559 0.061830
5.167744 -0.402859 -0.002026
0.361761 2.671614 0.298428
20.779791 -0.017358 -0.071677