<VTKFile type='UnstructuredGrid' version='1.0' byte_order='LittleEndian' header_type='UInt64'>
<UnstructuredGrid>
<Piece NumberOfCells='500' NumberOfPoints='500'>
<Points>
<DataArray NumberOfComponents='3' type='Float32' Name='Position' format='ascii'>
0.268407 0.612795 0.226790
0.576418 0.391087 0.117623
0.063371 0.980119 0.222669
0.409375 0.770060 0.184914
0.567070 0.745123 0.106131
0.055180 0.191847 0.247975
0.466832 0.297187 0.074117
0.296508 0.794010 0.208358
0.268920 0.614022 0.225285
0.249347 0.767278 0.226491
0.148650 0.249039 0.035805
0.050502 0.006173 0.059047
0.288717 0.540689 0.219233
0.147385 0.255330 0.236861
0.297042 0.690730 0.214915
0.450046 0.884785 0.150566
0.295651 0.325168 0.204425
0.290814 0.927844 0.160456
0.016044 0.794509 0.219183
0.435144 0.114893 0.112906
0.564066 0.275776 0.144978
0.015810 0.097425 0.236188
0.490468 0.695553 0.078157
0.048607 0.991554 0.150050
0.475781 0.879560 0.131191
0.563134 0.699128 0.118750
0.561291 0.500921 0.099993
0.546162 0.362323 0.159709
0.032027 0.846216 0.003199
0.132327 0.935894 0.218010
0.579185 0.670430 0.151603
0.103979 0.312651 0.242538
0.159993 0.960012 0.184894
0.370498 0.633654 0.181196
0.249497 0.955225 0.127046
0.374030 0.588545 0.201971
0.482447 0.290822 0.078493
0.495459 0.138846 0.123130
0.241515 0.567084 0.046499
0.335044 0.095217 0.068052
0.213086 0.092026 0.216270
0.160313 0.292196 0.238533
0.087790 0.294080 0.006308
0.120853 0.040127 0.032169
0.588353 0.646215 0.116005
0.046854 0.525847 0.007009
0.027173 0.125420 0.022013
0.534093 0.698512 0.165749
0.289679 0.929198 0.106746
0.343342 0.639194 0.198706
0.450853 0.848811 0.171793
0.019963 0.669915 0.220897
0.595059 0.364671 0.131666
0.032639 0.847287 0.003840
0.197426 0.478027 0.227529
0.216529 0.393557 0.207204
0.140331 0.854060 0.230399
0.326770 0.458050 0.039929
0.413314 0.906215 0.120314
0.152263 0.048671 0.165097
0.156545 0.254498 0.027447
0.459174 0.832067 0.173975
0.057990 0.993853 0.193163
0.419350 0.606466 0.188863
0.315352 0.648319 0.043225
0.058099 0.723069 0.004502
0.137563 0.390086 0.030103
0.453351 0.896810 0.128684
0.241175 0.107671 0.204278
0.425228 0.111523 0.156076
0.491939 0.179218 0.158425
0.244981 0.467885 0.026159
0.240905 0.960772 0.113551
0.483986 0.841483 0.087750
0.041568 0.652650 0.243363
0.138826 0.577889 0.029515
0.382446 0.664287 0.056075
0.447289 0.688026 0.067929
0.555626 0.632842 0.155400
0.557004 0.574687 0.150397
0.012562 0.207063 0.216274
0.570530 0.599606 0.150658
0.358262 0.907701 0.069322
0.505812 0.136345 0.120947
0.583198 0.757627 0.121707
0.122223 0.256740 0.239443
0.135290 0.964183 0.185363
0.570861 0.393484 0.134457
0.376794 0.089360 0.105217
0.503944 0.273838 0.078043
0.206530 0.584890 0.020672
0.462530 0.886184 0.124077
0.587606 0.629796 0.136954
0.260628 0.250033 0.039317
0.571665 0.408337 0.106753
0.047747 0.613700 0.248210
0.014420 0.556100 0.248905
0.417241 0.777027 0.194242
0.304396 0.833869 0.048812
0.175077 0.148394 0.201964
0.336071 0.253159 0.047118
0.018916 0.985467 0.179045
0.553405 0.797162 0.102356
0.544770 0.420743 0.084285
0.558267 0.785641 0.134363
0.495592 0.696512 0.177348
0.569963 0.430991 0.096046
0.574015 0.256469 0.124735
0.558236 0.782543 0.128724
0.251875 0.051715 0.117155
0.451025 0.127561 0.090960
0.492485 0.466674 0.178889
0.059252 0.907451 0.241080
0.574401 0.445638 0.103615
0.296323 0.691229 0.215291
0.333273 0.703897 0.042158
0.559152 0.576167 0.097114
0.423126 0.874810 0.171682
0.020951 0.992458 0.223505
0.505877 0.499355 0.080624
0.030912 0.043243 0.006211
0.156991 0.323313 0.213659
0.298200 0.924482 0.155183
0.381916 0.079587 0.124986
0.331416 0.652847 0.186909
0.220040 0.897336 0.029353
0.551040 0.211155 0.135475
0.396458 0.624717 0.192014
0.557516 0.759663 0.099545
0.264015 0.123272 0.037905
0.191226 0.170491 0.226267
0.014432 0.502111 0.224383
0.466948 0.861863 0.166755
0.365184 0.070387 0.150739
0.542802 0.430449 0.078566
0.378933 0.314173 0.052735
0.369589 0.437028 0.197385
0.576976 0.618681 0.126328
0.103608 0.984207 0.099734
0.179513 0.491425 0.235802
0.588369 0.569940 0.122291
0.358137 0.694238 0.051336
0.341178 0.357011 0.040116
0.572999 0.333066 0.143842
0.546244 0.727879 0.159533
0.123958 0.968439 0.190796
0.127508 0.019195 0.101270
0.467975 0.726415 0.180679
0.315096 0.316598 0.046326
0.295804 0.334146 0.038338
0.404622 0.130726 0.168788
0.298020 0.866859 0.204649
0.582512 0.296152 0.132698
0.564533 0.749787 0.143597
0.211906 0.956960 0.088687
0.200801 0.959224 0.173832
0.081705 0.038662 0.160394
0.237485 0.434459 0.033417
0.027428 0.567814 0.248177
0.328141 0.560220 0.224694
0.414334 0.652015 0.181015
0.214055 0.949682 0.175234
0.485294 0.821885 0.093011
0.552058 0.776082 0.114240
0.197628 0.145978 0.223810
0.448545 0.646831 0.178012
0.389427 0.818095 0.182688
0.544609 0.554914 0.094499
0.198311 0.047448 0.167223
0.115918 0.035317 0.168274
0.039917 0.988547 0.126627
0.398765 0.166371 0.064894
0.560956 0.713751 0.135652
0.294506 0.687357 0.216938
0.542712 0.447305 0.153565
0.443367 0.617107 0.180261
0.024642 0.985990 0.004665
0.581061 0.543004 0.123923
0.420363 0.669688 0.185618
0.556969 0.704181 0.109844
0.545084 0.598470 0.095788
0.295604 0.857881 0.041897
0.312568 0.350157 0.209684
0.263409 0.937807 0.171429
0.023127 0.015272 0.077467
0.375217 0.896921 0.090294
0.356258 0.912997 0.072392
0.038391 0.988999 0.139350
0.579289 0.407873 0.125591
0.164043 0.782130 0.237473
0.531442 0.799119 0.092095
0.435080 0.371531 0.061235
0.549555 0.261382 0.149925
0.450236 0.657813 0.075660
0.027372 0.884519 0.247173
0.451528 0.274759 0.074559
0.580687 0.286766 0.126227
0.110577 0.047478 0.157150
0.523278 0.220124 0.163564
0.264923 0.134341 0.036848
0.546624 0.706135 0.102019
0.472113 0.740825 0.072597
0.176844 0.898400 0.019544
0.376864 0.265176 0.054735
0.165174 0.033194 0.189987
0.590571 0.274173 0.118288
0.021358 0.157270 0.235431
0.475026 0.823925 0.174147
0.439073 0.111755 0.143939
0.117372 0.475802 0.242010
0.585903 0.636484 0.131517
0.572960 0.629519 0.126280
0.510350 0.846859 0.128172
0.414669 0.905438 0.123892
0.229447 0.095881 0.044174
0.560794 0.270797 0.101988
0.552898 0.425434 0.155978
0.363776 0.668323 0.062601
0.502205 0.324728 0.173983
0.052044 0.026062 0.024333
0.547316 0.744474 0.158231
0.450055 0.465176 0.062322
0.219233 0.151439 0.026384
0.583055 0.548217 0.107369
0.557006 0.702537 0.143276
0.157088 0.050348 0.128163
0.492474 0.592081 0.074921
0.106987 0.535862 0.015254
0.161220 0.026540 0.097988
0.371047 0.431875 0.202993
0.336331 0.216839 0.053582
0.039451 0.708954 0.240006
0.172536 0.596728 0.012770
0.562902 0.224331 0.136634
0.249070 0.064591 0.167879
0.032392 0.968345 0.213927
0.565011 0.414119 0.099191
0.294351 0.594771 0.035656
0.587875 0.555310 0.132140
0.103685 0.928576 0.205897
0.128115 0.114188 0.021958
0.298749 0.621491 0.210056
0.433879 0.420233 0.066353
0.363031 0.397778 0.186061
0.577533 0.726084 0.113112
0.432396 0.507129 0.063462
0.288838 0.629021 0.043016
0.116089 0.980779 0.159484
0.222674 0.120538 0.213457
0.029340 0.208444 0.022424
0.270268 0.618814 0.200559
0.587022 0.654566 0.142752
0.140659 0.973363 0.141280
0.241193 0.947064 0.114904
0.441394 0.900908 0.136508
0.217483 0.413819 0.229353
0.552635 0.523063 0.104090
0.026421 0.995372 0.043686
0.038800 0.793383 0.006855
0.011977 0.620885 0.217538
0.573644 0.582178 0.139011
0.030920 0.623464 0.242275
0.496139 0.138450 0.115161
0.549331 0.679115 0.154179
0.505963 0.833822 0.151324
0.467225 0.136737 0.150033
0.057320 0.394806 0.009696
0.577226 0.476264 0.109527
0.486294 0.383323 0.074158
0.210117 0.776749 0.231250
0.435763 0.869690 0.088412
0.036104 0.189771 0.014921
0.563849 0.339261 0.092093
0.403736 0.394872 0.173104
0.580205 0.369387 0.111714
0.539542 0.404636 0.081929
0.427428 0.415001 0.074833
0.563254 0.248101 0.107957
0.408744 0.905558 0.103944
0.502819 0.687633 0.078044
0.438166 0.869539 0.081359
0.469902 0.854467 0.091420
0.251154 0.119070 0.038903
0.292353 0.925572 0.104980
0.355200 0.414782 0.198655
0.276689 0.198816 0.029917
0.391621 0.120351 0.068776
0.053521 0.964625 0.238130
0.461392 0.824900 0.076454
0.004123 0.744402 0.029585
0.288586 0.864804 0.211045
0.472683 0.334924 0.164975
0.575406 0.671336 0.130939
0.208066 0.482090 0.211170
0.196120 0.066845 0.034368
0.291016 0.638430 0.038614
0.428184 0.100464 0.148018
0.278177 0.199767 0.037532
0.592900 0.520566 0.111889
0.214192 0.486668 0.226752
0.513517 0.510987 0.165201
0.501060 0.162258 0.095050
0.309913 0.810031 0.206570
0.579176 0.683889 0.139753
0.316878 0.625262 0.214720
0.315881 0.292448 0.041190
0.562700 0.417557 0.102852
0.276811 0.948075 0.124454
0.020848 0.142649 0.028869
0.268759 0.925010 0.070271
0.410671 0.278474 0.059904
0.216916 0.489990 0.017000
0.317684 0.926372 0.081206
0.505949 0.152644 0.134119
0.398255 0.089330 0.151598
0.017990 0.507187 0.235166
0.363476 0.342535 0.042832
0.170994 0.319323 0.232689
0.325414 0.917868 0.118317
0.520793 0.601735 0.167729
0.327530 0.683354 0.042150
0.473863 0.727274 0.183924
0.268501 0.607563 0.036770
0.111087 0.979306 0.193616
0.039287 0.426776 0.016400
0.569492 0.662792 0.147427
0.028819 0.374215 0.239990
0.210498 0.062776 0.038341
0.573861 0.262834 0.118985
0.461542 0.384318 0.177773
0.012644 0.515865 0.243535
0.024586 0.435381 0.227681
0.123845 0.039738 0.044343
0.408280 0.121000 0.076074
0.008776 0.606659 0.000378
0.393474 0.108738 0.076981
0.302419 0.553610 0.042883
0.309051 0.616602 0.031732
0.007850 0.280839 0.236094
0.553021 0.701791 0.096700
0.439913 0.737184 0.188584
0.308217 0.534074 0.043147
0.416723 0.110581 0.170008
0.121604 0.961497 0.068397
0.023542 0.130827 0.025684
0.533538 0.406540 0.077989
0.009300 0.890852 0.249120
0.569787 0.747144 0.124256
0.464960 0.524372 0.071578
0.352362 0.547808 0.201109
0.505706 0.316400 0.172689
0.263683 0.112465 0.043472
0.017396 0.982683 0.217787
0.573988 0.438328 0.139870
0.210265 0.899289 0.224544
0.529236 0.533190 0.084255
0.065833 0.009809 0.206270
0.373821 0.916189 0.137081
0.305987 0.841928 0.204937
0.246312 0.892405 0.043854
0.586152 0.750803 0.123515
0.436935 0.108404 0.137729
0.143406 0.952661 0.200624
0.547890 0.738230 0.086684
0.104165 0.028353 0.042035
0.095455 0.020877 0.162380
0.530057 0.483616 0.084219
0.017248 0.746862 0.011324
0.459103 0.193467 0.078739
0.310729 0.272039 0.216074
0.429974 0.504215 0.064941
0.029418 0.536796 0.226625
0.542655 0.367876 0.165854
0.218753 0.857916 0.035296
0.571554 0.302820 0.113659
0.583689 0.492074 0.113508
0.358837 0.879715 0.181913
0.220481 0.142399 0.217060
0.433660 0.413658 0.187090
0.318842 0.934401 0.140873
0.426527 0.106663 0.103751
0.366414 0.124464 0.185258
0.145649 0.037875 0.209907
0.431874 0.128144 0.173367
0.571059 0.474929 0.142246
0.212283 0.955514 0.088623
0.545309 0.766575 0.158017
0.588252 0.639289 0.136558
0.131872 0.976054 0.094493
0.031185 0.000726 0.183423
0.314480 0.881739 0.058001
0.090652 0.484634 0.010100
0.582755 0.381446 0.104063
0.424546 0.429819 0.187294
0.516302 0.150115 0.133191
0.264953 0.633667 0.027464
0.241202 0.121625 0.209122
0.038095 0.982970 0.021173
0.469881 0.367550 0.080429
0.241999 0.448646 0.220101
0.500893 0.664031 0.167243
0.018365 0.015104 0.080074
0.524557 0.175885 0.097968
0.020156 0.961168 0.014441
0.363207 0.913631 0.077819
0.225267 0.104139 0.208240
0.367067 0.593236 0.206840
0.484263 0.135649 0.148995
0.405443 0.584898 0.191977
0.574639 0.313265 0.121627
0.266046 0.458549 0.207378
0.381031 0.233831 0.051053
0.249306 0.061520 0.171432
0.079597 0.989251 0.168580
0.530815 0.326691 0.088682
0.218954 0.075684 0.034089
0.570312 0.428821 0.143027
0.447990 0.792253 0.176113
0.475598 0.505373 0.180753
0.532888 0.327939 0.089491
0.393846 0.747249 0.054368
0.121422 0.100262 0.018387
0.176725 0.903472 0.218991
0.539292 0.625397 0.088719
0.338561 0.441198 0.197257
0.432989 0.530937 0.060596
0.506810 0.333773 0.074229
0.248575 0.648827 0.223973
0.376094 0.100294 0.160460
0.569956 0.689665 0.111250
0.468727 0.462525 0.074007
0.152741 0.035857 0.193707
0.550683 0.689615 0.149318
0.533613 0.204532 0.104169
0.593569 0.480563 0.132514
0.150761 0.537150 0.016739
0.303358 0.398388 0.199784
0.554680 0.406207 0.096293
0.526404 0.836977 0.140688
0.260251 0.406174 0.024469
0.407267 0.087439 0.121139
0.322393 0.799166 0.044132
0.583353 0.658799 0.129128
0.449710 0.124452 0.089870
0.584190 0.481787 0.113688
0.342389 0.316450 0.048135
0.384764 0.236255 0.195382
0.301750 0.129814 0.201224
0.422066 0.901610 0.110678
0.042538 0.619973 0.004333
0.028316 0.688350 0.247057
0.328939 0.113014 0.180283
0.248142 0.287482 0.030914
0.522871 0.458926 0.080812
0.034676 0.640139 0.011608
0.293870 0.641694 0.042852
0.265593 0.333083 0.221162
0.576412 0.392925 0.132641
0.465661 0.137202 0.153579
0.349813 0.422216 0.209534
0.101952 0.026367 0.041660
0.305573 0.853675 0.045529
0.451896 0.591055 0.176744
0.040232 0.571406 0.015319
0.279931 0.518932 0.218329
0.242351 0.046275 0.161518
0.231864 0.083428 0.212741
0.543805 0.353966 0.159760
0.287188 0.676808 0.019596
0.414746 0.235292 0.182973
0.034432 0.846790 0.001556
0.245933 0.843826 0.221833
0.021157 0.957080 0.011912
0.034607 0.002899 0.207960
0.542937 0.808901 0.098205
0.261791 0.120742 0.200124
0.029816 0.372755 0.239117
0.218318 0.869626 0.036155
0.408850 0.602972 0.191933
0.585267 0.508071 0.126682
0.022554 0.945093 0.001079
0.327420 0.333728 0.205853
0.019362 0.386975 0.244421
0.448898 0.849001 0.077446
0.166748 0.946210 0.053529
0.540764 0.717103 0.089733
0.435290 0.505319 0.064285
0.168861 0.948573 0.052987
0.451305 0.466423 0.063488
0.388742 0.560762 0.200589
0.327375 0.924118 0.089424
0.290637 0.945016 0.108552
0.115122 0.975792 0.072558
0.112514 0.021142 0.057307
0.138159 0.038369 0.175045
0.379418 0.088310 0.157359
0.381121 0.198947 0.184645
0.330225 0.136922 0.199526
0.368762 0.787534 0.186168
0.581942 0.676597 0.124666
</DataArray>
</Points>
<PointData>
<DataArray NumberOfComponents='1' type='Int32' Name='ParticleType' format='ascii'>
1
1
1
1
1
1
1
1
1
1
1
1
1
1
1
1
1
1
1
1
1
1
1
1
1
1
1
1
1
1
1
1
1
1
1
1
1
1
1
1
1
1
1
1
1
1
1
1
1
1
1
1
1
1
1
1
1
1
1
1
1
1
1
1
1
1
1
1
1
1
1
1
1
1
1
1
1
1
1
1
1
1
1
1
1
1
1
1
1
1
1
1
1
1
1
1
1
1
1
1
1
1
1
1
1
1
1
1
1
1
1
1
1
1
1
1
1
1
1
1
1
1
1
1
1
1
1
1
1
1
1
1
1
1
1
1
1
1
1
1
1
1
1
1
1
1
1
1
1
1
1
1
1
1
1
1
1
1
1
1
1
1
1
1
1
1
1
1
1
1
1
1
1
1
1
1
1
1
1
1
1
1
1
1
1
1
1
1
1
1
1
1
1
1
1
1
1
1
1
1
1
1
1
1
1
1
1
1
1
1
1
1
1
1
1
1
1
1
1
1
1
1
1
1
1
1
1
1
1
1
1
1
1
1
1
1
1
1
1
1
1
1
1
1
1
1
1
1
1
1
1
1
1
1
1
1
1
1
1
1
1
1
1
1
1
1
1
1
1
1
1
1
1
1
1
1
1
1
1
1
1
1
1
1
1
1
1
1
1
1
1
1
1
1
1
1
1
1
1
1
1
1
1
1
1
1
1
1
1
1
1
1
1
1
1
1
1
1
1
1
1
1
1
1
1
1
1
1
1
1
1
1
1
1
1
1
1
1
1
1
1
1
1
1
1
1
1
1
1
1
1
1
1
1
1
1
1
1
1
1
1
1
1
1
1
1
1
1
1
1
1
1
1
1
1
1
1
1
1
1
1
1
1
1
1
1
1
1
1
1
1
1
1
1
1
1
1
1
1
1
1
1
1
1
1
1
1
1
1
1
1
1
1
1
1
1
1
1
1
1
1
1
1
1
1
1
1
1
1
1
1
1
1
1
1
1
1
1
1
1
1
1
1
1
1
1
1
1
1
1
1
1
1
1
1
1
1
1
1
1
1
1
1
1
1
1
1
1
1
1
1
1
1
1
1
1
1
1
1
1
1
1
1
1
1
1
1
1
1
1
1
1
1
1
1
1
1
1
1
1
</DataArray>
<DataArray NumberOfComponents='1' type='Int32' Name='ParticleID' format='ascii'>
0
1
2
3
4
5
6
7
8
9
10
11
12
13
14
15
16
17
18
19
20
21
22
23
24
25
26
27
28
29
30
31
32
33
34
35
36
37
38
39
40
41
42
43
44
45
46
47
48
49
50
51
52
53
54
55
56
57
58
59
60
61
62
63
64
65
66
67
68
69
70
71
72
73
74
75
76
77
78
79
80
81
82
83
84
85
86
87
88
89
90
91
92
93
94
95
96
97
98
99
100
101
102
103
104
105
106
107
108
109
110
111
112
113
114
115
116
117
118
119
120
121
122
123
124
125
126
127
128
129
130
131
132
133
134
135
136
137
138
139
140
141
142
143
144
145
146
147
148
149
150
151
152
153
154
155
156
157
158
159
160
161
162
163
164
165
166
167
168
169
170
171
172
173
174
175
176
177
178
179
180
181
182
183
184
185
186
187
188
189
190
191
192
193
194
195
196
197
198
199
200
201
202
203
204
205
206
207
208
209
210
211
212
213
214
215
216
217
218
219
220
221
222
223
224
225
226
227
228
229
230
231
232
233
234
235
236
237
238
239
240
241
242
243
244
245
246
247
248
249
250
251
252
253
254
255
256
257
258
259
260
261
262
263
264
265
266
267
268
269
270
271
272
273
274
275
276
277
278
279
280
281
282
283
284
285
286
287
288
289
290
291
292
293
294
295
296
297
298
299
300
301
302
303
304
305
306
307
308
309
310
311
312
313
314
315
316
317
318
319
320
321
322
323
324
325
326
327
328
329
330
331
332
333
334
335
336
337
338
339
340
341
342
343
344
345
346
347
348
349
350
351
352
353
354
355
356
357
358
359
360
361
362
363
364
365
366
367
368
369
370
371
372
373
374
375
376
377
378
379
380
381
382
383
384
385
386
387
388
389
390
391
392
393
394
395
396
397
398
399
400
401
402
403
404
405
406
407
408
409
410
411
412
413
414
415
416
417
418
419
420
421
422
423
424
425
426
427
428
429
430
431
432
433
434
435
436
437
438
439
440
441
442
443
444
445
446
447
448
449
450
451
452
453
454
455
456
457
458
459
460
461
462
463
464
465
466
467
468
469
470
471
472
473
474
475
476
477
478
479
480
481
482
483
484
485
486
487
488
489
490
491
492
493
494
495
496
497
498
499
</DataArray>
<DataArray NumberOfComponents='1' type='Int8' Name='IsActive' format='ascii'>
1
1
1
1
1
1
1
1
1
1
1
1
1
1
1
1
1
1
1
1
1
1
1
1
1
1
1
1
1
1
1
1
1
1
1
1
1
1
1
1
1
1
1
1
1
1
1
1
1
1
1
1
1
1
1
1
1
1
1
1
1
1
1
1
1
1
1
1
1
1
1
1
1
1
1
1
1
1
1
1
1
1
1
1
1
1
1
1
1
1
1
1
1
1
1
1
1
1
1
1
1
1
1
1
1
1
1
1
1
1
1
1
1
1
1
1
1
1
1
1
1
1
1
1
1
1
1
1
1
1
1
1
1
1
1
1
1
1
1
1
1
1
1
1
1
1
1
1
1
1
1
1
1
1
1
1
1
1
1
1
1
1
1
1
1
1
1
1
1
1
1
1
1
1
1
1
1
1
1
1
1
1
1
1
1
1
1
1
1
1
1
1
1
1
1
1
1
1
1
1
1
1
1
1
1
1
1
1
1
1
1
1
1
1
1
1
1
1
1
1
1
1
1
1
1
1
1
1
1
1
1
1
1
1
1
1
1
1
1
1
1
1
1
1
1
1
1
1
1
1
1
1
1
1
1
1
1
1
1
1
1
1
1
1
1
1
1
1
1
1
1
1
1
1
1
1
1
1
1
1
1
1
1
1
1
1
1
1
1
1
1
1
1
1
1
1
1
1
1
1
1
1
1
1
1
1
1
1
1
1
1
1
1
1
1
1
1
1
1
1
1
1
1
1
1
1
1
1
1
1
1
1
1
1
1
1
1
1
1
1
1
1
1
1
1
1
1
1
1
1
1
1
1
1
1
1
1
1
1
1
1
1
1
1
1
1
1
1
1
1
1
1
1
1
1
1
1
1
1
1
1
1
1
1
1
1
1
1
1
1
1
1
1
1
1
1
1
1
1
1
1
1
1
1
1
1
1
1
1
1
1
1
1
1
1
1
1
1
1
1
1
1
1
1
1
1
1
1
1
1
1
1
1
1
1
1
1
1
1
1
1
1
1
1
1
1
1
1
1
1
1
1
1
1
1
1
1
1
1
1
1
1
1
1
1
1
1
1
1
1
1
1
1
1
1
1
1
1
1
1
1
1
1
1
1
1
1
1
1
1
1
1
1
1
1
1
1
1
1
1
</DataArray>
<DataArray NumberOfComponents='1' type='Int32' Name='ParticleTetID' format='ascii'>
102908
15760
49095
35269
103652
88115
66332
1017
102908
2965
105540
26307
516
32883
12295
5387
50882
9492
100932
4202
4469
101388
21492
62462
4109
26300
74143
1164
100560
101524
81238
91889
41254
18887
1791
43353
82279
5709
104521
57287
73665
58165
50948
105279
74416
83524
94294
18920
6257
103863
25646
80251
23928
100560
2073
49524
72948
23767
19317
85676
76641
39829
68009
2385
24881
51000
24188
4109
1244
51061
3459
58012
1791
23179
80251
94705
6001
3116
79478
180
99295
6278
82428
7633
38070
7184
764
16454
71943
82279
42057
4109
102071
3305
15760
94137
99903
33580
35737
103634
24790
101500
12509
78055
40221
5016
16454
4469
55411
4262
4202
52976
39533
17222
12295
30215
14487
21944
101245
18268
101233
66846
9492
73955
103862
35332
4016
8484
18227
72579
103635
100092
16813
26446
78055
30481
45347
14754
28202
19006
14487
17747
5374
73209
75085
103165
56123
891
66111
8126
50161
5936
21690
34519
1587
26799
104709
34048
99903
7764
8484
26799
23179
18227
46054
17357
36766
93
66501
104708
97137
56786
24550
12295
73537
2293
101445
14487
8484
24550
66028
56252
104420
9492
101509
82428
39368
97137
16454
33854
41445
15721
11248
24388
71593
51144
21690
11116
45695
75369
24550
39243
61757
24790
24913
21690
100903
39829
12197
100789
6278
14754
4771
19317
75669
4469
48892
18714
49598
20417
24434
16068
45746
58752
103801
44444
62284
65233
75110
45347
402
69970
43966
8375
48338
17189
40793
37784
14487
101523
92267
1122
16068
46890
103652
4347
33727
11657
3104
99275
102909
38949
41443
2921
60658
49354
457
99980
101022
100807
14487
100807
7633
50038
44519
8282
67616
14002
7836
57255
18637
85474
42304
64979
23928
79741
16068
4469
3346
21492
18637
3259
75669
75589
105915
1441
59633
69708
23179
100743
43467
48681
26300
4244
44798
33727
3365
1441
69991
4244
683
54552
1651
81238
1122
66678
40793
2921
35818
62903
20043
93814
12291
3938
68525
100092
12221
66846
15654
40870
48329
891
54989
103165
74099
50038
101063
26634
4469
35892
100092
79729
105279
36235
101354
42735
26997
22646
98826
24550
5326
31986
51061
99273
94294
79741
101139
103653
4396
43058
49598
72579
101245
17222
60188
67159
15033
15654
5936
22210
103652
3365
764
18227
105279
104708
28582
100743
43241
52822
4347
77116
101603
25008
25976
53708
103348
6387
42721
15536
4202
105393
23867
51061
680
1587
24434
102071
94009
101043
52592
96826
15760
42721
3938
68738
1244
91864
46423
20548
29488
101509
55681
101224
39368
3104
53238
5709
11718
65231
21952
402
48338
89697
38418
68114
44155
84944
57418
38418
49085
51117
66540
102413
33143
4396
63660
56224
66895
26300
102580
23867
103801
8375
680
60044
29736
43844
25636
48894
34022
68702
93179
36235
14002
46432
38129
62755
18637
76206
66662
37612
50165
28582
76206
33727
58700
16454
8282
105915
105279
56252
62026
88021
3368
48338
72832
27782
47042
36626
100560
49915
101224
73590
41445
1244
101063
39724
51568
74143
95063
104421
101063
23179
55374
26722
4347
55374
21793
11718
25189
6257
85946
105280
85676
66895
17623
37612
11625
26300
</DataArray>
<DataArray NumberOfComponents='3' type='Float32' Name='vels' format='ascii'>
7.923920 0.042910 0.002747
22.548647 -0.841521 0.002545
2.061109 -0.014269 0.014524
17.044221 0.293077 -0.000730
22.782511 0.689828 -0.001153
0.717864 0.013362 0.001855
21.430794 -0.632365 -0.003441
12.273292 0.121021 -0.007073
4.969508 0.029035 0.000553
7.641846 0.064556 0.004092
1.494290 -0.006621 0.000412
1.586486 0.020907 0.024291
13.022172 0.033634 0.004042
10.323944 0.022929 0.058915
15.426425 0.141573 0.004813
17.518585 0.212182 -0.013414
14.166981 -0.120596 0.004900
12.438786 0.062585 0.001428
-0.040075 -0.022351 -0.001574
14.163394 -0.163498 -0.015092
22.374332 -1.081989 0.002071
0.011453 0.048895 -0.002875
20.034315 0.389956 -0.001998
1.995735 0.045554 -0.060232
15.784784 0.188623 0.014219
21.327841 1.054156 -0.000635
21.991251 0.016390 -0.001934
22.255966 -0.893103 -0.000892
0.013394 0.040814 -0.008659
6.503450 0.111932 0.049182
21.688425 1.512431 -0.000600
2.415319 0.026369 0.000963
3.958500 0.046065 0.017872
19.193457 0.171587 0.001802
9.189575 -0.015026 -0.034938
12.043766 0.110749 0.000406
21.239582 -0.629774 -0.003696
19.802760 -0.516627 0.003805
14.138257 0.019719 -0.013384
14.298325 -0.085475 -0.005500
10.329857 -0.080703 -0.013814
18.720010 -0.019134 0.088258
2.046799 0.028991 -0.008001
6.924938 -0.061822 -0.030664
22.830683 1.018380 -0.000687
0.101898 0.008866 -0.004908
0.146623 0.038065 -0.001258
20.095938 0.824613 0.000115
12.707232 0.045736 0.013693
15.226077 0.144407 0.002957
18.803689 0.297191 -0.009675
-0.117752 -0.033265 0.004320
22.586532 -1.122209 0.001440
0.167750 0.023967 -0.014906
7.650605 -0.007224 0.009881
13.257836 -0.027079 0.028891
5.822356 0.041969 0.005218
11.900857 -0.039141 -0.002301
16.168342 0.128481 0.030759
5.437581 -0.043597 0.057840
1.606373 -0.008043 0.000398
19.441666 0.328633 0.001243
1.156553 -0.008587 0.014702
17.144370 0.221747 0.001020
13.418368 0.119050 -0.003352
1.590788 -0.016712 -0.005493
8.980492 0.025728 -0.044008
17.832125 0.226499 -0.005669
10.645298 -0.092108 0.029120
15.655297 -0.166034 0.004023
20.588181 -0.577463 -0.012606
8.788459 -0.011903 -0.004035
11.897504 0.056121 -0.000533
18.024446 0.295345 -0.023920
-0.007268 0.006717 0.000424
8.270023 -0.023374 -0.035321
16.170391 0.226092 -0.000974
18.289837 0.401135 -0.000659
21.126567 1.021724 -0.002461
21.601721 0.408211 -0.001356
-0.024566 -0.009381 -0.005310
21.807064 0.716899 0.001817
12.625522 0.071985 0.015752
19.488074 -0.477503 0.004688
22.617882 1.395906 0.005772
3.672624 0.011440 0.009205
5.925806 0.079110 0.058765
22.536453 -0.799533 0.002305
14.965548 -0.090807 0.007578
20.282830 -0.563967 -0.002060
7.098892 0.010905 -0.007770
18.578298 0.241704 -0.003141
22.484553 1.043032 0.001366
12.021638 -0.107641 -0.015979
22.103497 -0.699868 0.002301
0.380125 -0.020502 0.004237
0.302864 0.053877 -0.022441
13.978433 0.247543 -0.001318
13.589663 0.132408 -0.001495
0.056211 -0.000537 0.000072
6.016430 -0.094591 -0.000041
0.278516 0.000613 -0.070132
21.567353 0.855797 -0.001514
20.317444 -0.483445 -0.001963
22.195603 0.896566 0.005304
18.799854 0.591457 -0.000719
20.461501 -0.353956 -0.000771
22.900182 -1.172668 0.002242
22.505000 0.955041 0.002435
14.245486 -0.125576 -0.030615
15.828506 -0.217140 -0.009708
18.830481 -0.026602 -0.001734
2.224891 -0.040735 0.018181
21.617820 -0.388352 -0.001307
16.304067 0.149495 0.005235
12.923406 0.153902 -0.000286
20.541552 0.628061 -0.000681
16.393500 0.179809 0.006400
0.017913 0.003260 -0.024266
10.947231 0.010757 0.001777
1.088864 0.145689 -0.030449
0.249718 0.004496 -0.015853
13.135414 0.065176 -0.003736
13.699450 -0.047633 0.004771
17.533689 0.159734 0.004309
7.138764 0.061901 -0.017762
20.137216 -1.302974 0.002193
16.546121 0.209567 0.001029
22.290752 1.040716 0.001041
12.233098 -0.115362 -0.007715
0.111645 -0.001226 0.000105
0.019290 0.020596 -0.007534
19.295345 0.351865 -0.009056
12.365824 -0.036798 -0.000678
19.937056 -0.478761 -0.002029
16.644914 -0.242838 0.000070
15.841532 -0.089324 0.001910
22.647577 0.907483 -0.000667
3.849511 0.010355 -0.031567
5.120437 -0.001874 0.006287
21.584719 0.632693 0.000562
15.187768 0.181479 -0.000572
16.456987 -0.137389 -0.004168
22.810313 -1.055380 -0.001087
22.697653 1.031802 0.003346
5.581398 0.025115 0.038689
4.490321 -0.053508 -0.025949
18.391488 0.477663 -0.000020
13.932192 -0.138696 -0.003082
16.473032 -0.114767 -0.011137
16.918759 -0.190845 -0.003229
12.569396 0.096937 -0.005731
22.856510 -1.236551 0.001563
22.637986 1.071030 -0.001541
9.201658 0.058117 -0.048318
4.551953 -0.018592 -0.030949
0.069797 -0.000028 0.008576
13.260467 -0.024504 -0.014472
0.436280 -0.003623 0.018329
8.547106 0.040371 0.000557
18.222738 0.299715 0.000232
5.960065 -0.019178 0.010165
20.080114 0.457370 -0.000763
21.843962 0.846190 0.000332
7.733699 -0.082891 0.016381
19.985283 0.336365 0.000497
16.928932 0.233677 0.003640
21.394440 0.376359 -0.002609
9.090523 -0.058444 0.021093
7.402998 -0.047686 0.038344
0.078901 -0.008464 0.000512
16.135246 -0.220372 -0.006888
22.642448 1.064739 0.002134
15.762198 0.141690 0.004884
21.977984 -0.285969 -0.000958
16.845042 0.384935 -0.001115
0.280855 -0.000234 0.000650
22.380035 0.374149 0.003571
17.802508 0.318003 -0.000219
21.383290 1.009193 -0.001339
21.513378 0.596628 0.001341
11.261085 0.102517 0.003969
12.583096 -0.110007 0.003277
9.872310 0.027242 0.057451
-0.024829 -0.003015 0.017369
13.932099 0.072213 -0.011582
12.345075 0.071133 0.011727
0.034365 -0.000545 -0.007533
22.549714 -0.754438 0.005091
4.192140 0.015446 0.004883
20.686835 0.709633 -0.000513
17.171871 -0.297377 -0.000397
21.983746 -0.959798 -0.001925
17.963978 0.324402 -0.000798
0.642414 -0.051893 0.015992
18.742966 -0.371736 -0.000730
22.954971 -1.233205 0.003587
6.998061 -0.018887 0.045040
18.516039 -0.660002 0.000325
10.123501 -0.108538 -0.003135
20.688193 0.919246 -0.000797
18.881624 0.505692 -0.003142
12.403571 0.142975 -0.017911
16.450945 -0.279137 0.000661
5.900098 -0.026580 0.034901
22.925875 -1.370060 0.005328
-0.023781 0.033680 0.001075
20.347756 0.351175 0.002666
17.597096 -0.212761 -0.010435
5.995343 0.011104 0.017780
22.726278 0.987124 -0.000547
22.394975 0.939421 -0.001026
20.352352 0.455668 -0.006181
15.641287 0.172525 -0.006134
0.139410 -0.001645 0.007702
22.190672 -1.047735 0.001797
21.260738 -0.502637 -0.000783
17.369259 0.209779 -0.001414
20.362978 -0.753121 -0.002999
1.196883 0.000646 0.031151
22.008880 0.961469 0.002879
17.038650 -0.129186 0.001906
7.765320 -0.083465 -0.007930
21.937428 0.417159 0.000426
22.159174 1.021940 0.003729
10.589335 -0.143533 0.005381
19.819163 0.435120 0.002726
5.152209 -0.020376 -0.024604
5.645901 -0.046963 -0.040382
15.746572 -0.082222 0.002136
15.022479 -0.179131 -0.001317
-0.064966 -0.028765 0.005604
4.556901 0.004632 -0.002518
22.435430 -1.011919 -0.001655
11.448936 -0.032973 -0.015754
4.078375 -0.352536 -0.211570
21.631103 -0.627676 0.001626
10.081821 0.047339 -0.004110
22.279630 0.496948 0.001235
0.072457 0.005602 0.000249
4.687239 -0.038975 -0.023174
10.866110 0.074193 0.002320
18.097197 -0.206031 0.000492
18.709336 -0.147954 0.005219
22.758591 1.198336 0.002707
17.924573 0.083632 -0.000463
6.855800 0.051043 -0.001518
3.522555 0.043420 0.024728
8.048286 -0.091455 0.021071
-0.024249 -0.003152 -0.006499
15.604070 0.070574 0.011685
22.286262 1.140893 -0.002592
6.278411 0.027535 0.015011
0.418892 0.068031 -0.036559
17.092880 0.181904 -0.000623
7.091707 -0.013702 0.008817
22.439408 0.192596 -0.000578
2.001918 -0.137712 0.429933
0.028208 0.005708 -0.003599
-0.051001 0.025348 -0.015345
22.261131 0.649300 0.000949
0.001545 -0.038307 0.015517
19.551767 -0.516868 0.001931
21.362060 1.407795 -0.004002
20.227485 0.457705 0.003858
16.929824 -0.236060 -0.007579
1.470529 -0.017891 -0.040813
22.004169 -0.271290 0.000168
19.254559 -0.423551 0.000541
6.264104 0.040840 0.010929
17.750169 0.236657 -0.007884
0.055193 0.005614 -0.007973
22.992977 -0.787763 -0.003616
19.963679 -0.220901 0.001006
22.097316 -0.971379 0.001718
20.067988 -0.544045 -0.001573
21.141643 -0.188796 -0.001074
22.411064 -1.057276 -0.001109
15.683470 0.117305 0.031540
20.604782 0.662335 -0.001830
17.171652 0.230275 -0.004675
18.512889 0.312131 -0.021779
10.056304 -0.101667 -0.008009
13.207101 0.047922 0.011786
4.369590 -0.027474 -0.000028
9.978868 -0.104909 -0.004402
14.784109 -0.128322 -0.005954
1.433178 -0.003161 0.012074
16.981814 0.257554 0.003837
0.053788 0.012834 0.011308
10.326445 0.064980 -0.005155
20.715619 -0.504824 0.000521
21.035390 1.080417 0.003076
12.303668 -0.007186 0.027017
9.511741 -0.074888 -0.015675
12.230861 0.082383 -0.004860
16.516706 -0.180871 -0.015745
11.727382 -0.123507 -0.007762
21.984123 0.202936 0.005443
7.904317 -0.002201 0.014588
21.421816 0.002438 -0.001762
21.138447 -0.496816 0.008325
12.493086 0.127717 -0.003662
22.736044 1.465368 -0.000083
11.321408 0.091053 0.001605
12.790715 -0.136123 -0.003277
21.953546 -0.575579 0.000890
7.377148 -0.002402 0.033776
0.004607 -0.012172 -0.003031
14.263653 0.175027 -0.015732