<VTKFile type='UnstructuredGrid' version='1.0' byte_order='LittleEndian' header_type='UInt64'>
<UnstructuredGrid>
<Piece NumberOfCells='500' NumberOfPoints='500'>
<Points>
<DataArray NumberOfComponents='3' type='Float32' Name='Position' format='ascii'>
0.409753 0.613678 0.226970
0.878475 0.330969 0.117645
0.094794 0.980096 0.222338
0.625746 0.780355 0.185062
0.923100 0.818658 0.106755
0.065168 0.191395 0.247879
0.753144 0.269867 0.074658
0.489367 0.797329 0.208921
0.416436 0.615103 0.224924
0.363168 0.768534 0.227149
0.265731 0.248241 0.035543
0.079308 0.006621 0.059066
0.434552 0.541290 0.219564
0.215626 0.255497 0.236708
0.460489 0.693686 0.215016
0.726699 0.896244 0.150705
0.434475 0.322951 0.204148
0.460566 0.928685 0.160117
0.040703 0.792853 0.217640
0.713504 0.104854 0.112801
0.917113 0.200467 0.145553
0.015143 0.098890 0.236579
0.757883 0.724348 0.078567
0.078716 0.991273 0.149422
0.770774 0.896811 0.130182
0.901940 0.771223 0.118532
0.832963 0.496062 0.100312
0.838557 0.315753 0.158728
0.032333 0.846380 0.003264
0.243149 0.936567 0.218219
0.900031 0.744831 0.151611
0.170211 0.312039 0.242242
0.260198 0.960178 0.184223
0.641624 0.642325 0.181581
0.395410 0.955607 0.127453
0.568257 0.592352 0.202423
0.783884 0.255751 0.077133
0.814314 0.116128 0.123279
0.480188 0.569236 0.046511
0.482628 0.093475 0.068062
0.323595 0.090554 0.215931
0.219973 0.292581 0.238690
0.153818 0.294276 0.005934
0.189203 0.038712 0.031952
0.902121 0.725241 0.115709
0.046583 0.525301 0.007401
0.027231 0.125765 0.021827
0.822868 0.744655 0.165650
0.469555 0.929597 0.106495
0.536667 0.644091 0.198920
0.720025 0.861203 0.171867
0.020212 0.669959 0.221633
0.901746 0.283435 0.131595
0.033683 0.847794 0.003775
0.328620 0.478783 0.227857
0.426265 0.391215 0.207008
0.257892 0.855846 0.230836
0.510850 0.456926 0.040523
0.666599 0.911796 0.119765
0.265909 0.048252 0.165660
0.289005 0.253564 0.027073
0.739703 0.849168 0.173644
0.076237 0.993565 0.192878
0.577211 0.611783 0.189643
0.509170 0.653168 0.043154
0.079937 0.723179 0.004152
0.323695 0.390087 0.029563
0.718297 0.905996 0.128801
0.390398 0.106749 0.204559
0.631247 0.106129 0.155701
0.820844 0.146418 0.157490
0.390452 0.467346 0.027060
0.383511 0.961787 0.114010
0.779525 0.862031 0.088215
0.041820 0.652237 0.243366
0.330474 0.578449 0.029275
0.628343 0.674798 0.055489
0.706638 0.707385 0.067541
0.854572 0.689595 0.155168
0.844169 0.614114 0.150319
0.012936 0.206952 0.216048
0.846962 0.650216 0.150205
0.551368 0.910620 0.068751
0.828877 0.111279 0.120223
0.958751 0.837848 0.121732
0.196469 0.256173 0.239677
0.206081 0.964752 0.185520
0.869478 0.334945 0.134256
0.617344 0.085029 0.104858
0.746272 0.250277 0.078081
0.357019 0.586296 0.021030
0.740983 0.897297 0.124469
0.896285 0.705102 0.136431
0.456573 0.246861 0.039488
0.866264 0.350751 0.107211
0.057805 0.613460 0.248052
0.015340 0.556993 0.248957
0.655236 0.789218 0.194733
0.507929 0.837568 0.048332
0.273434 0.146361 0.201756
0.529158 0.247083 0.047082
0.021606 0.985864 0.177388
0.910733 0.850930 0.102406
0.822334 0.390198 0.084139
0.920954 0.843084 0.134887
0.726726 0.719336 0.177367
0.850482 0.390360 0.095927
0.946388 0.177985 0.125434
0.925963 0.842314 0.129241
0.415945 0.050721 0.117013
0.730984 0.114083 0.092077
0.754061 0.458731 0.179413
0.092835 0.907311 0.241034
0.852900 0.409611 0.103628
0.460514 0.693975 0.215164
0.505383 0.708518 0.042051
0.840467 0.608489 0.097039
0.666948 0.882623 0.171697
0.022003 0.993294 0.222664
0.772007 0.499023 0.080513
0.049047 0.043874 0.006126
0.320914 0.322035 0.213418
0.499843 0.926438 0.154737
0.606104 0.075978 0.123985
0.555245 0.658266 0.187704
0.328546 0.897731 0.028968
0.906823 0.156652 0.135324
0.621182 0.633404 0.192141
0.909219 0.823199 0.099521
0.414050 0.121787 0.037634
0.313607 0.169749 0.225670
0.014643 0.502574 0.224422
0.731806 0.874695 0.166530
0.553082 0.068472 0.150101
0.802263 0.402113 0.078257
0.562890 0.307899 0.052448
0.603466 0.433070 0.197789
0.883752 0.686252 0.125998
0.158223 0.984492 0.099926
0.253048 0.492056 0.234954
0.864723 0.611685 0.121234
0.595357 0.702518 0.050768
0.543351 0.351279 0.040481
0.900455 0.254566 0.142994
0.879467 0.787538 0.160047
0.204964 0.969276 0.191123
0.193169 0.018638 0.101374
0.709709 0.745793 0.180067
0.515330 0.311477 0.047092
0.494762 0.330111 0.037893
0.659470 0.123116 0.169945
0.446643 0.869052 0.205578
0.942653 0.205912 0.132314
0.923845 0.818655 0.143718
0.359163 0.958140 0.088384
0.321118 0.959717 0.173223
0.154539 0.038393 0.161027
0.432948 0.433653 0.032926
0.031734 0.567810 0.248819
0.436549 0.561358 0.224968
0.655053 0.664892 0.180769
0.348354 0.950359 0.175315
0.797183 0.847428 0.093022
0.917039 0.837828 0.113659
0.314254 0.144898 0.224213
0.705759 0.663183 0.177736
0.648475 0.828789 0.182921
0.828675 0.573978 0.095250
0.296738 0.047565 0.166331
0.242706 0.034348 0.168541
0.039504 0.988148 0.126971
0.623959 0.159504 0.065128
0.915261 0.789868 0.136491
0.450411 0.690368 0.216758
0.814186 0.423189 0.152979
0.697962 0.632626 0.180732
0.029351 0.985491 0.005241
0.854852 0.569851 0.123702
0.597034 0.676912 0.185263
0.906710 0.779089 0.109372
0.831890 0.644104 0.095805
0.438014 0.859788 0.042048
0.494799 0.346139 0.209789
0.362325 0.938488 0.171804
0.022606 0.014851 0.077967
0.622472 0.901681 0.089451
0.548480 0.915809 0.072822
0.037892 0.988649 0.139150
0.870916 0.359610 0.125575
0.280269 0.782796 0.237931
0.868223 0.844291 0.091906
0.682382 0.358470 0.061392
0.885020 0.201593 0.149765
0.729958 0.680152 0.074985
0.036809 0.884047 0.247001
0.737083 0.251367 0.074674
0.941020 0.200364 0.126456
0.258092 0.045007 0.158029
0.842602 0.179000 0.164410
0.414436 0.132843 0.036661
0.888604 0.771917 0.102110
0.755048 0.768835 0.072940
0.256953 0.898721 0.019557
0.613543 0.255137 0.054332
0.267191 0.032791 0.189697
0.959326 0.187095 0.118367
0.020359 0.157902 0.235541
0.725340 0.840798 0.174584
0.714032 0.101384 0.144284
0.188903 0.476134 0.242074
0.897158 0.716118 0.131788
0.884131 0.698852 0.126570
0.836256 0.878146 0.128185
0.675739 0.912184 0.124995
0.362689 0.093912 0.044768
0.901381 0.201834 0.103278
0.832974 0.395381 0.155734
0.566294 0.674831 0.062553
0.802176 0.288969 0.173784
0.078737 0.026515 0.024041
0.872879 0.798387 0.158730
0.695751 0.461158 0.062925
0.347933 0.149581 0.025049
0.856277 0.575091 0.107254
0.887804 0.768769 0.144097
0.325079 0.049087 0.128043
0.767756 0.616340 0.073869
0.240779 0.535796 0.014710
0.267564 0.025942 0.098233
0.531202 0.429510 0.202963
0.548841 0.211932 0.053364
0.039641 0.708830 0.240497
0.242909 0.596185 0.013395
0.927092 0.161271 0.136920
0.404981 0.063813 0.168667
0.092546 0.968512 0.214373
0.847253 0.370216 0.099089
0.473440 0.597022 0.035565
0.866532 0.595226 0.132060
0.193923 0.929757 0.205928
0.226656 0.113143 0.021431
0.489191 0.624418 0.210275
0.698603 0.407377 0.066006
0.626037 0.390538 0.185636
0.940249 0.803487 0.112451
0.668086 0.507066 0.063756
0.507773 0.633059 0.043010
0.170035 0.980708 0.159702
0.372749 0.119724 0.212894
0.031053 0.209018 0.021209
0.483478 0.621716 0.201092
0.901080 0.732587 0.142696
0.285007 0.974697 0.141669
0.418682 0.948433 0.114776
0.697735 0.909673 0.137209
0.322570 0.413457 0.229644
0.828070 0.533157 0.102726
0.032441 0.995280 0.045306
0.039846 0.793351 0.006064
0.010245 0.621376 0.217126
0.857428 0.624541 0.138847
0.032748 0.622991 0.242339
0.815584 0.116160 0.114628
0.871670 0.744926 0.154615
0.830772 0.865566 0.150959
0.756226 0.124069 0.149461
0.179143 0.395160 0.013350
0.849923 0.465362 0.110305
0.770401 0.354603 0.074442
0.304717 0.777514 0.230879
0.710824 0.881281 0.088329
0.036314 0.190116 0.014668
0.874104 0.277281 0.092873
0.683143 0.380996 0.173014
0.883165 0.298863 0.111915
0.811113 0.372756 0.081641
0.710806 0.403996 0.074287
0.912883 0.176359 0.108002
0.649318 0.911361 0.103812
0.753349 0.714149 0.077483
0.680657 0.879552 0.081728
0.767073 0.873727 0.090941
0.415672 0.117077 0.038665
0.473652 0.926521 0.105074
0.584612 0.408438 0.198261
0.383976 0.197863 0.029099
0.630067 0.115198 0.068974
0.077551 0.964506 0.238697
0.753862 0.844598 0.076250
0.050023 0.743010 0.032017
0.447731 0.866940 0.211021
0.768993 0.300065 0.165026
0.905018 0.747295 0.130510
0.381695 0.482022 0.211170
0.269624 0.066726 0.033824
0.512753 0.642451 0.037873
0.683697 0.092945 0.148101
0.444162 0.197070 0.037690
0.855745 0.530695 0.112449
0.348682 0.486473 0.227019
0.787329 0.514162 0.164941
0.824472 0.134108 0.095650
0.505961 0.814298 0.206974
0.912707 0.761982 0.139832
0.508230 0.628599 0.214929
0.504696 0.287434 0.041886
0.845927 0.373273 0.102627
0.440660 0.948955 0.124472
0.151106 0.146422 0.029801
0.402951 0.925793 0.070390
0.611967 0.268555 0.059243
0.307793 0.489740 0.017580
0.433064 0.926944 0.081448
0.831880 0.124135 0.134924
0.639831 0.083425 0.151146
0.017483 0.507476 0.235356
0.524887 0.338908 0.042529
0.291012 0.318084 0.233437
0.551426 0.920340 0.117683
0.811782 0.644427 0.167668
0.532880 0.688264 0.042249
0.729282 0.749311 0.183909
0.446042 0.609468 0.037040
0.181955 0.980207 0.195010
0.038886 0.426226 0.017039
0.891215 0.736118 0.147425
0.028757 0.373904 0.240070
0.312035 0.063121 0.038577
0.943615 0.181560 0.119297
0.714700 0.367428 0.178093
0.013525 0.515541 0.243170
0.107232 0.436786 0.227841
0.192587 0.038656 0.043755
0.636579 0.115559 0.075847
0.007986 0.606686 0.000153
0.629875 0.102656 0.077293
0.480742 0.554030 0.043705
0.477056 0.619239 0.032518
0.007560 0.280902 0.235694
0.887212 0.769349 0.096762
0.684108 0.752993 0.189250
0.486960 0.534249 0.042606
0.647597 0.104348 0.169861
0.239417 0.961472 0.067649
0.023482 0.129988 0.025675
0.800170 0.378772 0.077350
0.010076 0.890044 0.249368
0.939433 0.825075 0.124626
0.736454 0.533693 0.071606
0.572804 0.550806 0.201019
0.808372 0.278674 0.173370
0.429802 0.110646 0.043571
0.018214 0.982201 0.217054
0.858146 0.398201 0.139418
0.312503 0.900533 0.225522
0.806648 0.550740 0.084560
0.114098 0.009767 0.206535
0.608264 0.919305 0.136836
0.470571 0.844146 0.205329
0.389283 0.893502 0.044182
0.954900 0.832336 0.123437
0.703327 0.099941 0.137331
0.249189 0.953309 0.201619
0.873834 0.796890 0.086696
0.168995 0.027876 0.042244
0.191583 0.020482 0.163809
0.796162 0.481879 0.084218
0.017032 0.746961 0.010894
0.750136 0.171715 0.078188
0.485074 0.268685 0.215481
0.657627 0.504531 0.064536
0.029705 0.535592 0.226797
0.820347 0.327465 0.165427
0.364312 0.858893 0.035921
0.915790 0.225250 0.113734
0.855115 0.488608 0.112928
0.577310 0.883446 0.181845
0.355822 0.141225 0.217051
0.634005 0.406374 0.187389
0.504283 0.935775 0.140844
0.681847 0.099406 0.102537
0.570856 0.120972 0.185178
0.226924 0.037200 0.210716
0.682876 0.118539 0.173977
0.844784 0.460582 0.142237
0.315709 0.957156 0.088690
0.882235 0.820013 0.157459
0.902500 0.721353 0.136466
0.223304 0.976242 0.093176
0.034618 0.000406 0.182887
0.478775 0.882780 0.058131
0.191085 0.484542 0.009767
0.876728 0.320047 0.103896
0.655639 0.422704 0.186886
0.841654 0.120401 0.132981
0.401141 0.635272 0.027905
0.408696 0.120257 0.209290
0.055264 0.982941 0.021394
0.770732 0.334701 0.080467
0.399940 0.448109 0.219488
0.765852 0.692337 0.168021
0.018033 0.014662 0.080257
0.842289 0.143323 0.097827
0.023186 0.960964 0.014587
0.572453 0.916441 0.078011
0.371859 0.102587 0.208019
0.562153 0.598123 0.206989
0.784158 0.116175 0.148974
0.642347 0.592871 0.192469
0.912045 0.231755 0.121338
0.448276 0.457337 0.207265
0.535924 0.229503 0.051123
0.398397 0.060682 0.172841
0.111906 0.989696 0.168827
0.833880 0.275682 0.089194
0.333286 0.075336 0.033913
0.855301 0.386488 0.142384
0.706648 0.808420 0.176178
0.722555 0.505806 0.180390
0.848513 0.274123 0.089815
0.624724 0.758649 0.054173
0.213088 0.099054 0.017869
0.256279 0.904233 0.218549
0.831493 0.672361 0.088701
0.520150 0.439922 0.196811
0.677463 0.535576 0.060528
0.793032 0.293568 0.074042
0.379065 0.650556 0.224168
0.592136 0.096459 0.161173
0.898131 0.760711 0.111023
0.709750 0.457571 0.073644
0.254425 0.035040 0.194472
0.865050 0.752799 0.149780
0.883729 0.156762 0.104567
0.859161 0.469143 0.131957
0.335290 0.537489 0.016326
0.512527 0.394905 0.200012
0.833417 0.365178 0.096588
0.849402 0.870629 0.141206
0.390920 0.404953 0.023851
0.643574 0.083074 0.121409
0.512692 0.802580 0.044389
0.912768 0.743251 0.128608
0.726012 0.112935 0.089976
0.854415 0.473877 0.114191
0.537421 0.310328 0.048229
0.601430 0.227682 0.195952
0.488251 0.127569 0.200751
0.687871 0.908997 0.112263
0.091984 0.619747 0.003737
0.047262 0.687828 0.247971
0.543604 0.109487 0.180454
0.386278 0.286281 0.031460
0.778566 0.448495 0.080965
0.034040 0.639539 0.011557
0.508283 0.646449 0.042915
0.421019 0.331097 0.221480
0.874718 0.333500 0.132683
0.752335 0.123809 0.153267
0.530007 0.419137 0.209398
0.163915 0.025750 0.041272
0.496793 0.856649 0.045743
0.707432 0.605923 0.176327
0.040044 0.572261 0.014982
0.455041 0.518492 0.217956
0.374381 0.045902 0.161169
0.338870 0.082130 0.212402
0.848196 0.295687 0.159352
0.388558 0.678101 0.019557
0.637874 0.224117 0.182742
0.035819 0.847514 0.001201
0.389137 0.845569 0.221962
0.021320 0.956658 0.011700
0.063046 0.003148 0.207954
0.884533 0.851555 0.097955
0.448565 0.118602 0.199617
0.029109 0.373331 0.238803
0.361514 0.870621 0.035902
0.644851 0.613429 0.191436
0.855222 0.510681 0.126561
0.025535 0.944461 0.001763
0.528646 0.328964 0.205245
0.019048 0.387313 0.245280
0.726151 0.863478 0.078108
0.283214 0.946976 0.053109
0.863328 0.773143 0.090064
0.678037 0.505194 0.064041
0.281371 0.949769 0.052512
0.697812 0.462268 0.063142
0.568140 0.563770 0.200868
0.457080 0.925082 0.089742
0.470102 0.945479 0.108416
0.199308 0.976427 0.071031
0.159376 0.021066 0.057368
0.256731 0.038291 0.175076
0.606474 0.085295 0.157466
0.614727 0.190107 0.184954
0.524525 0.133577 0.200150
0.595134 0.795954 0.186251
0.931803 0.766046 0.124826
</DataArray>
</Points>
<PointData>
<DataArray NumberOfComponents='1' type='Int32' Name='ParticleType' format='ascii'>
1
1
1
1
1
1
1
1
1
1
1
1
1
1
1
1
1
1
1
1
1
1
1
1
1
1
1
1
1
1
1
1
1
1
1
1
1
1
1
1
1
1
1
1
1
1
1
1
1
1
1
1
1
1
1
1
1
1
1
1
1
1
1
1
1
1
1
1
1
1
1
1
1
1
1
1
1
1
1
1
1
1
1
1
1
1
1
1
1
1
1
1
1
1
1
1
1
1
1
1
1
1
1
1
1
1
1
1
1
1
1
1
1
1
1
1
1
1
1
1
1
1
1
1
1
1
1
1
1
1
1
1
1
1
1
1
1
1
1
1
1
1
1
1
1
1
1
1
1
1
1
1
1
1
1
1
1
1
1
1
1
1
1
1
1
1
1
1
1
1
1
1
1
1
1
1
1
1
1
1
1
1
1
1
1
1
1
1
1
1
1
1
1
1
1
1
1
1
1
1
1
1
1
1
1
1
1
1
1
1
1
1
1
1
1
1
1
1
1
1
1
1
1
1
1
1
1
1
1
1
1
1
1
1
1
1
1
1
1
1
1
1
1
1
1
1
1
1
1
1
1
1
1
1
1
1
1
1
1
1
1
1
1
1
1
1
1
1
1
1
1
1
1
1
1
1
1
1
1
1
1
1
1
1
1
1
1
1
1
1
1
1
1
1
1
1
1
1
1
1
1
1
1
1
1
1
1
1
1
1
1
1
1
1
1
1
1
1
1
1
1
1
1
1
1
1
1
1
1
1
1
1
1
1
1
1
1
1
1
1
1
1
1
1
1
1
1
1
1
1
1
1
1
1
1
1
1
1
1
1
1
1
1
1
1
1
1
1
1
1
1
1
1
1
1
1
1
1
1
1
1
1
1
1
1
1
1
1
1
1
1
1
1
1
1
1
1
1
1
1
1
1
1
1
1
1
1
1
1
1
1
1
1
1
1
1
1
1
1
1
1
1
1
1
1
1
1
1
1
1
1
1
1
1
1
1
1
1
1
1
1
1
1
1
1
1
1
1
1
1
1
1
1
1
1
1
1
1
1
1
1
1
1
1
1
1
1
1
1
1
1
1
1
1
1
1
1
1
1
1
1
1
1
1
1
1
1
1
1
1
1
1
1
1
1
1
1
1
1
1
</DataArray>
<DataArray NumberOfComponents='1' type='Int32' Name='ParticleID' format='ascii'>
0
1
2
3
4
5
6
7
8
9
10
11
12
13
14
15
16
17
18
19
20
21
22
23
24
25
26
27
28
29
30
31
32
33
34
35
36
37
38
39
40
41
42
43
44
45
46
47
48
49
50
51
52
53
54
55
56
57
58
59
60
61
62
63
64
65
66
67
68
69
70
71
72
73
74
75
76
77
78
79
80
81
82
83
84
85
86
87
88
89
90
91
92
93
94
95
96
97
98
99
100
101
102
103
104
105
106
107
108
109
110
111
112
113
114
115
116
117
118
119
120
121
122
123
124
125
126
127
128
129
130
131
132
133
134
135
136
137
138
139
140
141
142
143
144
145
146
147
148
149
150
151
152
153
154
155
156
157
158
159
160
161
162
163
164
165
166
167
168
169
170
171
172
173
174
175
176
177
178
179
180
181
182
183
184
185
186
187
188
189
190
191
192
193
194
195
196
197
198
199
200
201
202
203
204
205
206
207
208
209
210
211
212
213
214
215
216
217
218
219
220
221
222
223
224
225
226
227
228
229
230
231
232
233
234
235
236
237
238
239
240
241
242
243
244
245
246
247
248
249
250
251
252
253
254
255
256
257
258
259
260
261
262
263
264
265
266
267
268
269
270
271
272
273
274
275
276
277
278
279
280
281
282
283
284
285
286
287
288
289
290
291
292
293
294
295
296
297
298
299
300
301
302
303
304
305
306
307
308
309
310
311
312
313
314
315
316
317
318
319
320
321
322
323
324
325
326
327
328
329
330
331
332
333
334
335
336
337
338
339
340
341
342
343
344
345
346
347
348
349
350
351
352
353
354
355
356
357
358
359
360
361
362
363
364
365
366
367
368
369
370
371
372
373
374
375
376
377
378
379
380
381
382
383
384
385
386
387
388
389
390
391
392
393
394
395
396
397
398
399
400
401
402
403
404
405
406
407
408
409
410
411
412
413
414
415
416
417
418
419
420
421
422
423
424
425
426
427
428
429
430
431
432
433
434
435
436
437
438
439
440
441
442
443
444
445
446
447
448
449
450
451
452
453
454
455
456
457
458
459
460
461
462
463
464
465
466
467
468
469
470
471
472
473
474
475
476
477
478
479
480
481
482
483
484
485
486
487
488
489
490
491
492
493
494
495
496
497
498
499
</DataArray>
<DataArray NumberOfComponents='1' type='Int8' Name='IsActive' format='ascii'>
1
1
1
1
1
1
1
1
1
1
1
1
1
1
1
1
1
1
1
1
1
1
1
1
1
1
1
1
1
1
1
1
1
1
1
1
1
1
1
1
1
1
1
1
1
1
1
1
1
1
1
1
1
1
1
1
1
1
1
1
1
1
1
1
1
1
1
1
1
1
1
1
1
1
1
1
1
1
1
1
1
1
1
1
1
1
1
1
1
1
1
1
1
1
1
1
1
1
1
1
1
1
1
1
1
1
1
1
1
1
1
1
1
1
1
1
1
1
1
1
1
1
1
1
1
1
1
1
1
1
1
1
1
1
1
1
1
1
1
1
1
1
1
1
1
1
1
1
1
1
1
1
1
1
1
1
1
1
1
1
1
1
1
1
1
1
1
1
1
1
1
1
1
1
1
1
1
1
1
1
1
1
1
1
1
1
1
1
1
1
1
1
1
1
1
1
1
1
1
1
1
1
1
1
1
1
1
1
1
1
1
1
1
1
1
1
1
1
1
1
1
1
1
1
1
1
1
1
1
1
1
1
1
1
1
1
1
1
1
1
1
1
1
1
1
1
1
1
1
1
1
1
1
1
1
1
1
1
1
1
1
1
1
1
1
1
1
1
1
1
1
1
1
1
1
1
1
1
1
1
1
1
1
1
1
1
1
1
1
1
1
1
1
1
1
1
1
1
1
1
1
1
1
1
1
1
1
1
1
1
1
1
1
1
1
1
1
1
1
1
1
1
1
1
1
1
1
1
1
1
1
1
1
1
1
1
1
1
1
1
1
1
1
1
1
1
1
1
1
1
1
1
1
1
1
1
1
1
1
1
1
1
1
1
1
1
1
1
1
1
1
1
1
1
1
1
1
1
1
1
1
1
1
1
1
1
1
1
1
1
1
1
1
1
1
1
1
1
1
1
1
1
1
1
1
1
1
1
1
1
1
1
1
1
1
1
1
1
1
1
1
1
1
1
1
1
1
1
1
1
1
1
1
1
1
1
1
1
1
1
1
1
1
1
1
1
1
1
1
1
1
1
1
1
1
1
1
1
1
1
1
1
1
1
1
1
1
1
1
1
1
1
1
1
1
1
1
1
1
1
1
1
1
1
1
1
1
1
1
1
1
1
1
1
1
1
1
1
1
1
</DataArray>
<DataArray NumberOfComponents='1' type='Int32' Name='ParticleTetID' format='ascii'>
31530
14945
103166
16439
3542
88115
6318
5922
31530
40138
3305
52922
56878
76793
103073
1917
11723
22802
7862
16692
13856
101388
32204
81789
45386
5325
33986
3080
100560
99304
32976
66846
22369
23592
3300
33506
101751
22482
27132
25533
56506
16377
85795
42758
39430
83524
94294
4832
16115
29488
30391
80251
75974
100560
71279
35757
99377
6157
16659
48338
7258
15272
89697
8672
34164
87437
29231
18872
100304
6851
86558
67718
2623
68459
80251
28621
52765
35104
44614
237
99295
7411
8450
22482
33084
96471
26799
42550
10974
71301
68877
1917
14896
70182
62956
97152
99903
64078
104571
8960
45430
101500
11202
14905
31348
30288
8546
35250
17667
5784
37555
93717
38294
9599
103073
35455
63407
20900
101245
21322
31131
104421
29683
10974
52280
49897
16071
8898
14655
16130
39232
100092
1710
77522
26931
103515
38227
10040
95167
91614
105283
72034
58898
2851
5646
26799
75110
28905
103514
46506
13074
25646
33744
64397
25189
13287
85676
17182
99903
103440
28642
13287
68589
17667
97328
22549
66617
28880
33308
56590
97137
105451
86862
103073
49204
29802
101445
18485
58095
19721
25623
103403
47609
57237
101509
69508
8450
97137
62798
53
60396
7397
30067
87590
71593
71301
6311
48338
2829
9359
29280
40006
22210
6720
56590
84646
100903
65782
21277
11694
20604
14896
17631
15823
2765
69612
9596
90155
7956
31131
24995
59885
41337
18485
8669
25600
45494
34586
23188
65794
21159
69970
57508
16491
10092
103166
40170
92155
10133
49659
50333
67996
50940
43734
90032
67699
68703
63562
105392
104455
30633
34193
5978
6285
15823
46989
60644
99980
101022
100807
19849
100807
52498
545
6515
21619
39999
13198
104908
1017
62471
85474
16658
13456
30201
28661
26158
93370
18314
32204
62471
73600
16130
16115
22462
929
41588
69708
51853
59307
25646
28816
9680
103473
25819
34164
103253
44436
102322
71279
17137
68350
6084
64513
22283
103515
40170
13898
96026
35593
22377
6132
7885
22482
103254
100092
103512
52773
1637
37719
21745
52632
21200
35645
74099
14065
101063
40068
78943
15203
100092
72534
26634
39097
101354
14811
93249
65320
98826
38759
28905
44886
13074
85212
94294
40179
101139
73189
8945
12858
7956
16130
101245
85401
92798
46321
71307
7717
54593
56365
33084
16692
91618
39553
62702
66501
85485
100743
49335
37180
23399
77116
1654
76741
49506
52793
104053
105393
47789
102818
16692
78581
33561
3330
87163
19914
77592
98174
31118
101043
46700
36887
30201
42726
66225
20320
43570
91864
104908
81822
37170
101509
57121
101224
8450
105392
31115
9322
61207
15065
55546
52699
10092
25514
80649
52216
84645
76640
28566
35146
18567
78282
93633
38429
104251
37074
7728
19656
11818
24002
26158
25419
8669
43012
74380
59217
44287
102165
6732
4649
9901
17409
9680
37555
52793
103514
44629
876
18872
78832
69970
17043
22608
8537
76206
34164
21038
14945
21619
97759
62702
31203
86888
88021
79548
26446
56506
1023
5426
104043
100560
89191
101224
90466
21059
32799
101063
79348
25083
47398
95063
4165
101063
5449
34844
27783
79810
34844
53218
33795
4025
102817
39868
62702
56590
11818
12365
102145
16439
9680
</DataArray>
<DataArray NumberOfComponents='3' type='Float32' Name='vels' format='ascii'>
7.714952 0.147843 -0.000320
18.831221 -8.927535 -0.003037
2.149663 0.003220 0.005154
17.497926 1.696050 -0.006126
27.642038 9.220703 -0.013739
0.688681 0.015762 0.002481
18.361328 -3.017094 0.006575
12.239157 0.368143 -0.000124
8.322928 0.156998 -0.000269
7.482548 0.100984 -0.000567
11.151198 -0.106151 -0.012860
1.384035 0.006234 -0.012065
9.873809 0.038000 -0.001136
4.546760 -0.027449 0.003395
1.967244 0.070402 0.000181
18.071568 1.225234 0.012564
1.797149 -0.043240 -0.000072
11.361390 0.080821 -0.013885
9.306584 -0.461594 -0.695619
21.158730 -1.419352 -0.004134
26.270072 -9.633088 0.001539
-0.092339 0.034425 -0.001701
19.532895 3.813087 -0.006398
2.104906 -0.003232 0.018990
22.255531 2.454907 -0.021548
24.816920 9.421432 -0.006885
15.030487 -0.684047 -0.004846
17.728864 -5.101055 -0.009537
0.087724 0.033279 -0.011360
11.568252 0.111096 0.026561
22.061185 9.344460 0.008803
2.711109 -0.011834 0.000683
7.226188 0.031484 0.023175
18.438053 1.110028 -0.003281
13.094663 0.086031 0.020534
13.873483 0.510508 -0.009625
20.288143 -4.830864 -0.003189
23.308198 -3.012924 -0.016105
13.944337 0.203069 0.002768
16.190665 -0.317974 -0.005546
2.882291 -0.058481 0.009403
4.009849 -0.023858 0.000785
2.106371 -0.000501 -0.004737
4.553323 -0.050803 -0.009259
21.604346 10.814713 0.001033
-0.078115 0.007992 -0.002451
-0.011453 0.021167 -0.001209
20.988754 6.108837 -0.002753
14.752365 0.150748 -0.001958
15.002167 0.595198 0.002585
17.399932 1.535361 0.005089
0.105790 -0.032109 0.011622
20.467695 -10.687443 0.004312
0.167632 0.027468 -0.016699
2.069696 -0.003613 -0.000159
17.318668 -0.196966 0.000701
5.779015 0.041938 -0.003881
12.706990 -0.126583 0.004829
17.388095 0.716105 0.004381
8.990980 -0.000637 0.024038
8.850120 -0.098202 -0.005932
19.900657 2.224012 -0.003957
1.253380 0.001932 0.011696
4.573815 0.259109 0.002575
18.161775 0.605572 0.004318
1.462510 -0.009024 -0.001558
9.738654 -0.068131 -0.000389
17.041127 0.946890 -0.014075
5.930140 -0.063069 0.005938
15.789535 -0.536854 0.007439
23.267782 -3.859516 -0.003611
8.844767 -0.034113 0.000572
12.797413 0.097535 0.010478
21.504321 2.836954 -0.007655
-0.018341 0.006718 0.000563
16.233758 0.054572 -0.004139
15.702979 1.299966 -0.008450
17.932518 2.603209 0.001358
18.550116 7.546015 0.003810
16.005323 5.182695 0.003682
0.064451 -0.003474 -0.007592
13.742220 5.232611 -0.010135
13.528187 0.271619 -0.015015
23.219777 -2.943725 -0.016145
30.349615 9.853944 0.008532
3.670553 -0.024688 0.000507
3.394164 -0.008775 -0.002956
17.107687 -9.337532 0.001962
18.009767 -0.546644 -0.007253
20.167630 -2.911839 0.000719
14.162862 0.100750 -0.001102
18.541698 1.257155 -0.003857
19.146704 10.216414 0.005358
15.306512 -0.376792 -0.000066
15.623166 -8.820751 -0.011403
0.710725 -0.014323 0.000750
0.051268 0.060382 -0.010504
15.990103 1.452122 -0.002516
17.137372 0.403421 0.006548
9.079878 -0.086694 -0.005967
10.787269 -0.470132 -0.001287
0.290817 0.006914 -0.062555
27.287796 6.747484 0.004826
15.304877 -3.801697 -0.000661
28.439272 7.682314 0.002005
16.870394 3.410638 -0.010020
15.226761 -5.139747 -0.014507
29.178915 -10.390051 0.020171
28.189801 7.446402 -0.001651
11.723188 -0.137620 0.014578
18.560847 -1.523389 0.010623
17.355681 -0.080729 0.018769
2.218922 -0.007223 -0.001168
14.919487 -4.484046 -0.007722
1.587390 0.057223 0.000173
12.920159 0.482344 0.000783
15.196009 4.500141 -0.011215
12.880761 0.766181 0.002915
0.060481 0.005138 -0.028164
15.918155 -0.243850 0.005682
1.209852 -0.003622 0.008044
11.645999 -0.123734 0.001803
15.300126 0.222069 -0.016453
15.420941 -0.361196 -0.005633
12.962810 0.656230 -0.001101
8.978657 0.060169 0.008967
27.485705 -7.204476 0.002678
15.702280 1.144296 0.002875
26.767907 8.274240 -0.014260
9.817858 -0.124206 -0.002047
14.499160 -0.144338 -0.007298
-0.042542 0.021299 -0.006212
18.628559 1.433894 -0.006271
13.306718 -0.209205 -0.006716
12.625931 -3.766807 -0.004767
11.035356 -0.479230 -0.004855
15.861938 -0.580271 -0.000173
18.281845 9.321649 0.007749
3.695980 0.009861 -0.012195
5.208072 -0.001783 0.000640
15.693323 6.738048 0.002923
14.827057 1.011108 -0.001764
12.403280 -0.564153 0.000500
22.608354 -10.445867 -0.001270
26.073035 7.934464 0.005952
5.881589 0.028240 0.051523
4.448508 -0.013037 -0.009945
18.643549 2.679332 0.002445
6.239268 -0.339670 -0.000939
15.942709 -0.484896 -0.001614
18.087631 -1.004973 0.007687
11.581326 0.164995 0.002242
27.146465 -11.706276 0.009324
27.648705 9.263679 -0.012393
8.771849 0.008004 -0.015928
7.097527 0.014538 -0.002501
5.846627 -0.041308 0.078302
11.650358 -0.111321 -0.000181
0.203552 -0.008607 0.021930
5.063480 0.076419 -0.000636
20.009952 2.048445 0.003243
8.340937 0.038875 0.014786
22.646456 3.178056 0.004345
27.862868 7.104225 0.000394
7.400831 -0.066645 -0.002567
17.759417 2.735188 0.000711
15.709289 0.966577 0.004455
14.845829 2.998279 0.004506
9.447315 -0.021781 0.005317
6.787165 0.004967 -0.018263
-0.047621 -0.004008 0.008226
16.826073 -0.947122 -0.003106
26.169456 10.151438 0.000195
10.596100 0.269913 0.000936
14.263356 -4.228332 -0.004904
17.519545 1.635424 -0.004009
0.325007 -0.002380 0.001566
14.732205 3.332973 0.001980
13.765289 0.954195 -0.002172
25.532375 10.136690 0.003830
14.645180 5.884824 0.007030
0.834664 0.022475 0.003131
15.287604 -0.467198 0.003067
0.830217 -0.004454 -0.002682
-0.002524 -0.003106 0.021647
13.749994 0.261581 -0.014085
13.214107 0.224348 -0.018709
-0.083653 0.000130 0.000791
16.473513 -7.257831 -0.005612
4.126531 0.043245 -0.000839
23.456184 5.276942 0.002171
16.112989 -1.826206 0.004830
21.991229 -6.712102 -0.002217
18.491557 3.053826 -0.004041
0.651122 -0.092410 -0.000500
20.137486 -2.952726 0.003644
27.604841 -11.367860 0.009911
8.543976 -0.007263 0.031916
23.372004 -5.395437 -0.004132
10.022088 -0.162183 -0.004275
24.119776 8.864592 -0.011348
19.211066 3.690105 0.005577
1.846432 0.016973 0.000953
16.801241 -1.286956 -0.002030
5.975352 0.004554 -0.010346
29.572741 -12.003847 -0.001072
-0.020221 0.035149 0.000007
19.452751 2.099560 -0.001874
18.290610 -1.108310 -0.003042
2.808401 -0.003361 -0.000670
18.600315 11.322126 -0.008273
19.738178 9.553158 -0.003098
22.332190 4.474924 -0.008559
17.513219 0.765726 0.009694
8.200858 -0.059514 -0.008956
24.225350 -8.966080 0.011385
15.350639 -3.861114 0.007943
2.229440 0.108395 -0.001934
18.760969 -5.390578 0.004023
2.381672 -0.036783 0.000677
23.417413 6.676793 0.016942
14.175186 -0.207567 -0.004923
7.488508 -0.060536 0.001177
14.371488 3.852974 0.000619
24.236520 9.262959 0.011848
10.941148 -0.029100 -0.010629
17.345373 3.883961 0.007273
16.349970 0.020692 -0.015427
5.983500 -0.021445 0.013782
3.558930 -0.066742 -0.000600
15.166775 -0.653898 0.005618
0.026728 -0.029977 0.007588
4.777279 0.019142 -0.002057
28.531261 -8.112596 0.009008
11.485962 -0.076887 0.024989
3.990241 0.006190 0.021316
13.158616 -4.855290 0.003642
11.223653 0.222145 0.001228
14.351391 5.271094 -0.001030
8.193014 0.082383 0.017572
6.800923 -0.069381 -0.012318
14.354042 0.343383 -0.003273
16.129527 -1.390559 0.001155
19.069015 -1.023225 -0.001733
27.172591 8.561000 -0.011512
16.059011 -0.270716 0.000953
16.398828 0.499951 0.004105
4.099892 0.014918 0.020800
4.945013 -0.042647 -0.002573
0.123899 0.009623 -0.005003
13.538998 0.345829 -0.003331
20.767397 10.523952 -0.003633
12.836473 0.016040 0.055759
11.141894 0.056048 0.033160
17.977595 0.932393 0.025241
6.968735 -0.047821 0.000076
14.747132 1.388573 -0.002516
0.162786 -0.001221 0.069319
0.045012 0.006314 -0.002822
-0.251904 0.026854 -0.003216
15.493057 5.567000 0.007903
0.028066 -0.038668 0.017069
22.862943 -2.782872 -0.018099
20.124537 8.565807 0.006992
22.541269 4.046832 -0.015619
17.760230 -1.308966 0.024524
4.831019 -0.001907 -0.003728
13.616524 -1.490045 -0.007093
18.330755 -4.154165 -0.001420
6.419684 0.071170 -0.002664
19.153562 1.390333 0.015188
-0.009889 0.001769 -0.005951
21.808285 -8.830064 0.013687
20.485181 -2.664556 -0.002177
17.340379 -9.724816 -0.004180
16.364634 -4.468979 -0.013789
16.638378 -1.159010 0.002133
24.651579 -8.107428 -0.018841
15.484382 0.640280 0.020766
19.451609 3.798430 -0.004311
18.678049 1.294439 0.008828
21.079101 2.601495 -0.026889
9.872525 -0.123448 0.001322
14.966188 0.150927 0.002119
19.225366 -1.168523 0.002413
13.400398 -0.197827 -0.006364
17.378332 -0.623207 -0.002240
1.589314 0.003186 0.005965
20.916698 2.563096 -0.008052
9.509801 -0.345967 0.350358
10.426048 0.154994 0.001697
18.052837 -5.985523 0.004631
23.060567 10.833104 -0.000432
6.198893 -0.000517 0.000551
7.061217 -0.037600 -0.027321
15.643020 0.515027 0.003291
17.867938 -0.885226 -0.001491
11.258744 -0.250772 -0.000080
13.271482 1.462239 -0.006744
14.169286 -0.004346 0.000216
15.725257 0.485055 -0.003391
23.261097 -3.555808 -0.019383
16.957496 0.511109 0.004964
23.996200 10.914862 0.005163
17.147919 0.385739 -0.000995
12.678992 -0.485282 -0.002450
13.368639 -4.756805 0.004478
10.992087 0.041153 -0.008241
8.480497 -0.027062 -0.012356