<VTKFile type='UnstructuredGrid' version='1.0' byte_order='LittleEndian' header_type='UInt64'>
<UnstructuredGrid>
<Piece NumberOfCells='500' NumberOfPoints='500'>
<Points>
<DataArray NumberOfComponents='3' type='Float32' Name='Position' format='ascii'>
0.850431 0.675013 0.227312
2.041913 0.322548 0.117272
0.196100 0.979858 0.221544
1.715606 0.839511 0.184957
2.006422 0.772777 0.106364
0.101759 0.192319 0.247130
1.970911 0.236049 0.076860
1.179259 0.891690 0.209553
0.827342 0.668850 0.224015
0.729770 0.790473 0.228200
0.770334 0.214312 0.034873
0.175613 0.007119 0.058423
0.828415 0.566294 0.219717
0.452652 0.252448 0.237272
0.847591 0.756395 0.215275
1.886032 0.899815 0.150295
1.138988 0.159325 0.204189
1.094767 0.955501 0.161632
0.515148 0.797187 0.218762
1.884215 0.105498 0.113463
2.053310 0.240382 0.149626
0.012123 0.100479 0.236379
2.013011 0.752185 0.079681
0.176468 0.990853 0.150793
1.917154 0.891677 0.129073
2.047684 0.745451 0.119795
1.049834 0.486652 0.095383
2.034071 0.303870 0.160488
0.034025 0.847889 0.004148
0.554320 0.937224 0.219730
2.049422 0.718082 0.151819
0.373300 0.310674 0.242095
0.574661 0.961890 0.184171
1.692236 0.760515 0.181428
0.884898 0.969975 0.128767
1.150559 0.802499 0.202863
2.032977 0.238094 0.074622
2.000648 0.118576 0.122908
0.943850 0.683165 0.045800
1.221850 0.050863 0.067176
0.673923 0.082440 0.215761
0.402917 0.289057 0.239002
0.250899 0.292869 0.006555
0.411826 0.038125 0.031036
2.007880 0.710244 0.115067
0.066047 0.525531 0.008637
0.028757 0.126851 0.020448
2.001995 0.747523 0.166309
1.095106 0.958234 0.105603
1.341767 0.825090 0.199420
1.898218 0.856430 0.170993
0.022739 0.668495 0.224286
2.008327 0.295468 0.130869
0.037607 0.849743 0.002921
0.729790 0.472963 0.227378
0.878447 0.312875 0.207482
0.530165 0.859805 0.230499
0.910892 0.393105 0.040947
1.670447 0.928450 0.118322
0.659500 0.044903 0.165986
0.757016 0.221950 0.027129
1.944408 0.850882 0.173147
0.137106 0.993062 0.193231
1.518994 0.799891 0.191077
1.265697 0.828120 0.043723
0.143917 0.723955 0.004060
0.739066 0.365951 0.030322
1.725815 0.922701 0.127682
0.951708 0.072898 0.205428
1.704779 0.078984 0.155634
2.032726 0.151930 0.157049
0.821079 0.447441 0.026340
0.812505 0.969795 0.114155
2.012379 0.857800 0.088540
0.041979 0.652860 0.243857
0.756850 0.600228 0.028961
1.615991 0.785357 0.054142
1.821422 0.746626 0.068012
2.032027 0.708061 0.156368
1.995363 0.660128 0.153483
0.013026 0.205458 0.214873
2.008623 0.671327 0.150335
1.279926 0.951859 0.067697
2.000212 0.119345 0.120454
2.027649 0.788814 0.122788
0.427589 0.252611 0.238822
0.525402 0.966534 0.185545
2.037782 0.301018 0.135393
1.633374 0.059410 0.105256
1.986651 0.231546 0.078504
0.696870 0.599659 0.021837
1.904522 0.897964 0.124369
2.041219 0.688146 0.137356
1.090963 0.129776 0.039422
2.033186 0.327317 0.104475
0.087890 0.613000 0.247997
0.025301 0.559214 0.248362
1.670820 0.847118 0.195810
1.263477 0.906640 0.048394
0.874310 0.112501 0.201787
1.304142 0.128109 0.046233
0.029205 0.986038 0.174514
2.030091 0.839346 0.098504
1.893031 0.349017 0.083070
2.041484 0.819601 0.133527
1.920061 0.739108 0.177044
1.956611 0.349284 0.095808
2.030378 0.211665 0.125291
2.051344 0.818365 0.128576
0.939478 0.034798 0.115752
1.838140 0.094755 0.092124
1.304416 0.230751 0.183879
0.225883 0.908117 0.241072
1.914044 0.369245 0.103813
0.873764 0.765118 0.214535
1.235717 0.856298 0.041102
1.965877 0.650527 0.095652
1.711390 0.915790 0.170970
0.025023 0.993828 0.221316
1.033398 0.494651 0.074760
0.078866 0.043365 0.005878
0.848599 0.257263 0.212198
1.095383 0.952314 0.155930
1.524206 0.041392 0.123259
1.506456 0.825448 0.187130
0.701868 0.905301 0.028170
2.022575 0.188149 0.135854
1.584858 0.776580 0.191353
2.023163 0.803616 0.100864
0.980006 0.078121 0.038089
0.709242 0.152064 0.225026
0.013007 0.503369 0.223646
1.876787 0.888815 0.166904
1.340484 0.039886 0.148722
1.796898 0.332394 0.076439
1.556069 0.172622 0.051631
1.161751 0.207866 0.201375
2.018896 0.681016 0.127061
0.400605 0.984999 0.100551
0.556698 0.491180 0.234203
2.018782 0.639498 0.119193
1.440259 0.846915 0.049064
1.245444 0.176414 0.039978
2.020581 0.271387 0.143559
2.029636 0.772421 0.161292
0.487361 0.969442 0.190013
0.441556 0.018244 0.101450
1.928907 0.776536 0.177985
1.329276 0.154670 0.047037
1.173561 0.161560 0.039619
1.676150 0.087954 0.169423
1.009868 0.916008 0.206121
2.007401 0.237211 0.132114
2.043957 0.792899 0.145899
0.778991 0.963341 0.089110
0.672391 0.962398 0.173235
0.509737 0.038142 0.161480
0.854129 0.386011 0.034988
0.035126 0.567637 0.249298
0.796098 0.586307 0.224641
1.789977 0.736826 0.181919
0.758043 0.957493 0.176098
2.015580 0.844944 0.092940
2.035106 0.799893 0.114166
0.759308 0.124093 0.224884
1.833159 0.737512 0.176836
1.740451 0.858716 0.182584
1.809317 0.644030 0.091871
0.728799 0.042397 0.167789
0.553424 0.032097 0.168663
0.039175 0.987711 0.128747
1.711846 0.128992 0.064198
2.002765 0.755692 0.135449
0.889410 0.769445 0.215937
1.820854 0.353158 0.155446
1.796481 0.709047 0.181652
0.044082 0.984925 0.005390
1.828931 0.627840 0.122628
1.722964 0.756182 0.185896
2.054804 0.758295 0.109029
2.041637 0.681193 0.088195
0.819726 0.885065 0.041851
0.990628 0.210812 0.208337
0.919176 0.956302 0.174439
0.020831 0.015450 0.078809
1.664264 0.929343 0.089808
1.233436 0.948681 0.071668
0.038127 0.988944 0.138671
2.043955 0.337547 0.127159
0.493633 0.786469 0.238342
2.014167 0.830135 0.092786
1.744348 0.268338 0.061727
2.006074 0.222603 0.150129
1.918690 0.722483 0.075560
0.101478 0.879230 0.246977
1.964428 0.221427 0.076505
2.022074 0.220839 0.125137
0.626792 0.042730 0.158755
2.024098 0.190148 0.166427
0.933186 0.090494 0.036049
2.031926 0.750208 0.100893
1.985693 0.779093 0.074046
0.530279 0.902400 0.018652
1.632229 0.177280 0.055467
0.531374 0.030894 0.189723
2.032852 0.230892 0.118425
0.017035 0.159137 0.234867
1.933679 0.840484 0.173769
1.841957 0.097981 0.145154
0.394465 0.476794 0.241109
2.045287 0.712677 0.129932
2.035427 0.694947 0.126864
2.048916 0.864810 0.125488
1.713353 0.926681 0.124826
0.835132 0.076213 0.044104
2.035264 0.224157 0.103852
1.930288 0.342408 0.156384
1.579966 0.805697 0.062877
2.008734 0.276993 0.174787
0.134680 0.026798 0.023347
2.014314 0.785718 0.158959
1.190001 0.225892 0.059012
0.721022 0.133795 0.025152
1.869200 0.633803 0.105609
2.002812 0.754347 0.144586
0.827574 0.038825 0.128034
1.821993 0.679821 0.073850
0.566727 0.536602 0.014894
0.553378 0.024342 0.098540
0.993095 0.264883 0.203895
1.549640 0.129787 0.052580
0.039665 0.707594 0.240849
0.478732 0.598417 0.014188
2.037639 0.183166 0.137945
0.838370 0.053714 0.168460
0.269870 0.969504 0.215460
2.030415 0.333994 0.097299
0.904256 0.690353 0.034493
1.965231 0.648824 0.132392
0.525892 0.931090 0.206087
0.531492 0.109467 0.021363
1.046110 0.797694 0.210155
1.621481 0.266185 0.063898
1.575213 0.232290 0.186414
2.017192 0.772864 0.111412
0.987247 0.501762 0.060989
1.111459 0.817281 0.042255
0.351310 0.980231 0.159805
0.767810 0.103522 0.213985
0.519968 0.206214 0.024492
1.205217 0.819885 0.201588
2.005690 0.712882 0.141472
0.599228 0.976402 0.142672
0.946701 0.965923 0.114448
1.760516 0.919853 0.136885
0.690570 0.399080 0.228585
1.373279 0.765721 0.096398
0.032866 0.995482 0.046189
0.178927 0.792523 0.005279
0.007668 0.622511 0.215351
2.007652 0.682386 0.138880
0.037501 0.620365 0.243757
2.005989 0.126293 0.114610
2.008474 0.747795 0.153841
2.001298 0.857592 0.150809
1.974067 0.122235 0.147819
0.418484 0.393334 0.012964
1.363070 0.241125 0.107723
1.802605 0.296729 0.073569
0.577054 0.785451 0.232540
1.873606 0.885269 0.090560
0.036927 0.189739 0.013784
2.015784 0.275097 0.093220
1.811922 0.293832 0.173150
2.033909 0.289244 0.112282
1.936132 0.328120 0.081339
1.757002 0.311381 0.072644
2.034917 0.195737 0.108191
1.671902 0.933179 0.104390
1.976542 0.750201 0.079533
1.783596 0.895465 0.081998
1.997070 0.857390 0.091255
0.954785 0.081149 0.038252
1.151731 0.957267 0.105429
1.251163 0.199518 0.199479
0.883371 0.145589 0.029176
1.654612 0.087101 0.069490
0.092495 0.965188 0.238711
1.968195 0.840139 0.077532
0.554138 0.749042 0.031743
0.975651 0.912604 0.211462
2.003428 0.277166 0.164066
2.040073 0.728954 0.132857
0.827905 0.470146 0.211035
0.611109 0.063121 0.033681
1.100615 0.825612 0.037359
1.782716 0.089816 0.149043
1.052648 0.110874 0.037513
1.328404 0.750083 0.109670
0.716652 0.484888 0.227464
1.002388 0.591596 0.172227
2.010992 0.147421 0.096275
1.299314 0.900376 0.208416
2.038118 0.748146 0.141266
1.022610 0.790694 0.215443
1.280609 0.146748 0.043152
2.038461 0.336184 0.102265
0.968355 0.965598 0.123451
0.570120 0.138443 0.028937
0.890751 0.942947 0.069412
1.657533 0.193873 0.059984
0.641468 0.487033 0.017463
0.975759 0.949501 0.079428
2.026656 0.128085 0.135971
1.522685 0.052300 0.151608
0.014804 0.509271 0.234520
1.252650 0.168236 0.042400
0.634301 0.303345 0.232893
1.434093 0.953728 0.117488
1.962115 0.681523 0.166759
1.297820 0.847443 0.043628
1.848054 0.778037 0.183891
0.951397 0.730106 0.035801
0.373306 0.981146 0.196270
0.039260 0.425958 0.016930
2.002534 0.716035 0.146029
0.029336 0.373448 0.238990
0.660188 0.058731 0.038216
2.028122 0.221336 0.119898
1.793565 0.295969 0.180190
0.013565 0.514428 0.242081
0.482897 0.435121 0.228669
0.463690 0.036104 0.043073
1.687814 0.080700 0.076608
0.009202 0.605197 0.000087
1.578615 0.065640 0.076793
0.928927 0.638699 0.043769
0.934107 0.734051 0.032205
0.008133 0.280272 0.235268
2.048770 0.749451 0.090866
1.829563 0.797689 0.189186
0.882503 0.573111 0.041800
1.691838 0.080953 0.168114
0.565697 0.965233 0.068132
0.024257 0.131856 0.025470
1.872596 0.332187 0.075312
0.018953 0.890552 0.250145
2.000588 0.799573 0.125313
1.324047 0.762854 0.067284
0.969611 0.684962 0.202231
2.028930 0.271324 0.174884
0.966172 0.076966 0.043016
0.043018 0.980971 0.215171
1.970091 0.347311 0.140382
0.645340 0.906407 0.226369
1.597882 0.696830 0.080843
0.175671 0.009482 0.207193
1.488789 0.952876 0.137738
1.157586 0.918851 0.205937
0.881886 0.919278 0.044393
2.025588 0.792722 0.125310
1.777962 0.077108 0.137716
0.532854 0.954341 0.201984
2.006244 0.790524 0.087015
0.372578 0.026975 0.041174
0.439698 0.020663 0.164300
1.002527 0.420968 0.076878
0.018072 0.746294 0.011142
1.963290 0.172801 0.079594
0.988542 0.164575 0.214384
0.999091 0.487497 0.061597
0.030222 0.533097 0.227817
2.020352 0.301361 0.168629
0.801019 0.880956 0.035883
2.054257 0.245705 0.112442
1.024090 0.448935 0.108910
1.557547 0.930903 0.182629
0.873438 0.106522 0.216534
1.498950 0.211004 0.189170
1.158336 0.963895 0.141613
1.764017 0.091079 0.102447
1.547223 0.074516 0.185575
0.452767 0.035243 0.212640
1.739565 0.091601 0.174151
1.527557 0.263457 0.145629
0.656973 0.959476 0.087719
2.020001 0.799353 0.160508
2.012249 0.715509 0.135389
0.488050 0.978897 0.093635
0.034259 -0.000089 0.183998
1.254396 0.937854 0.056792
0.401598 0.484441 0.008823
2.047931 0.313367 0.104281
1.543625 0.242716 0.189310
2.033696 0.125638 0.135117
0.855343 0.704339 0.028935
0.955914 0.082395 0.209979
0.081502 0.983442 0.021737
2.001362 0.282336 0.081177
0.804210 0.424348 0.220036
2.016776 0.724579 0.168284
0.015218 0.014233 0.082681
2.007751 0.161367 0.097244
0.138682 0.958416 0.017231
1.383366 0.950235 0.076156
0.847744 0.079211 0.207032
1.078853 0.797212 0.206613
1.972647 0.119051 0.148872
1.517518 0.794532 0.194609
2.049318 0.245117 0.121517
0.916909 0.392453 0.208446
1.533265 0.137890 0.049987
0.854102 0.048425 0.174771
0.246847 0.989644 0.169973
2.017891 0.273142 0.089601
0.657711 0.070865 0.033864
2.001818 0.350240 0.144337
1.864784 0.829305 0.175546
1.011112 0.515391 0.185472
2.040798 0.271093 0.087862
1.597746 0.849544 0.053426
0.486467 0.096044 0.018474
0.646709 0.910059 0.219973
2.010548 0.695931 0.089083
1.094368 0.219038 0.199167
1.142549 0.769607 0.056121
1.974667 0.280904 0.075239
0.858468 0.718462 0.224340
1.504160 0.059597 0.161273
2.039833 0.740614 0.110457
1.405537 0.223571 0.070149
0.543106 0.035667 0.193784
2.035768 0.751377 0.149175
2.021132 0.167951 0.105210
1.233847 0.258130 0.133721
0.605614 0.541442 0.015602
1.206086 0.191536 0.200152
2.033975 0.332578 0.095046
2.024310 0.858399 0.143123
0.728374 0.385924 0.024262
1.669381 0.061065 0.120590
1.370720 0.897453 0.044230
2.033033 0.715423 0.127692
1.836024 0.096698 0.090395
1.047618 0.290758 0.109841
1.475348 0.160335 0.048490
1.661782 0.151337 0.196449
1.221635 0.066474 0.201990
1.731047 0.927808 0.112409
0.208680 0.617462 0.003393
0.070252 0.686181 0.248546
1.488995 0.063710 0.182437
0.919705 0.200799 0.030489
1.624590 0.296972 0.076808
0.185484 0.638986 0.011973
1.075274 0.820651 0.043183
0.856647 0.261364 0.220775
2.019767 0.325567 0.131726
1.926935 0.115805 0.153315
0.949095 0.300027 0.210155
0.351662 0.024779 0.040326
1.191618 0.917082 0.044442
1.745440 0.692207 0.178095
0.039821 0.572859 0.014659
0.811427 0.530192 0.217820
0.737691 0.040630 0.160927
0.706453 0.074010 0.212831
2.024197 0.296343 0.159639
0.756167 0.710755 0.020734
1.821544 0.179815 0.182475
0.041435 0.850117 0.000911
0.805740 0.872037 0.221581
0.122946 0.953163 0.012330
0.117822 0.003715 0.208574
2.007821 0.839730 0.099613
1.076498 0.068926 0.200792
0.027853 0.375062 0.238798
0.849966 0.898669 0.035475
1.578561 0.768329 0.194225
1.054609 0.514208 0.126840
0.038811 0.940531 0.001875
1.273678 0.165823 0.206445
0.018630 0.387706 0.244826
1.903745 0.864376 0.078946
0.613368 0.948964 0.052367
2.005977 0.763890 0.090744
0.994188 0.495224 0.059982
0.603087 0.952228 0.052392
1.189307 0.226269 0.057617
1.157267 0.787868 0.204075
0.999069 0.950515 0.089541
0.982341 0.963763 0.108581
0.416627 0.976778 0.072264
0.424648 0.020331 0.057310
0.577670 0.036095 0.175093
1.557976 0.056700 0.159064
1.749672 0.152117 0.185206
1.181571 0.074810 0.200378
1.704539 0.854530 0.186288
2.009141 0.738372 0.125480
</DataArray>
</Points>
<PointData>
<DataArray NumberOfComponents='1' type='Int32' Name='ParticleType' format='ascii'>
1
1
1
1
1
1
1
1
1
1
1
1
1
1
1
1
1
1
1
1
1
1
1
1
1
1
1
1
1
1
1
1
1
1
1
1
1
1
1
1
1
1
1
1
1
1
1
1
1
1
1
1
1
1
1
1
1
1
1
1
1
1
1
1
1
1
1
1
1
1
1
1
1
1
1
1
1
1
1
1
1
1
1
1
1
1
1
1
1
1
1
1
1
1
1
1
1
1
1
1
1
1
1
1
1
1
1
1
1
1
1
1
1
1
1
1
1
1
1
1
1
1
1
1
1
1
1
1
1
1
1
1
1
1
1
1
1
1
1
1
1
1
1
1
1
1
1
1
1
1
1
1
1
1
1
1
1
1
1
1
1
1
1
1
1
1
1
1
1
1
1
1
1
1
1
1
1
1
1
1
1
1
1
1
1
1
1
1
1
1
1
1
1
1
1
1
1
1
1
1
1
1
1
1
1
1
1
1
1
1
1
1
1
1
1
1
1
1
1
1
1
1
1
1
1
1
1
1
1
1
1
1
1
1
1
1
1
1
1
1
1
1
1
1
1
1
1
1
1
1
1
1
1
1
1
1
1
1
1
1
1
1
1
1
1
1
1
1
1
1
1
1
1
1
1
1
1
1
1
1
1
1
1
1
1
1
1
1
1
1
1
1
1
1
1
1
1
1
1
1
1
1
1
1
1
1
1
1
1
1
1
1
1
1
1
1
1
1
1
1
1
1
1
1
1
1
1
1
1
1
1
1
1
1
1
1
1
1
1
1
1
1
1
1
1
1
1
1
1
1
1
1
1
1
1
1
1
1
1
1
1
1
1
1
1
1
1
1
1
1
1
1
1
1
1
1
1
1
1
1
1
1
1
1
1
1
1
1
1
1
1
1
1
1
1
1
1
1
1
1
1
1
1
1
1
1
1
1
1
1
1
1
1
1
1
1
1
1
1
1
1
1
1
1
1
1
1
1
1
1
1
1
1
1
1
1
1
1
1
1
1
1
1
1
1
1
1
1
1
1
1
1
1
1
1
1
1
1
1
1
1
1
1
1
1
1
1
1
1
1
1
1
1
1
1
1
1
1
1
1
1
1
1
1
1
1
1
1
1
1
1
1
1
1
1
1
1
1
1
1
</DataArray>
<DataArray NumberOfComponents='1' type='Int32' Name='ParticleID' format='ascii'>
0
1
2
3
4
5
6
7
8
9
10
11
12
13
14
15
16
17
18
19
20
21
22
23
24
25
26
27
28
29
30
31
32
33
34
35
36
37
38
39
40
41
42
43
44
45
46
47
48
49
50
51
52
53
54
55
56
57
58
59
60
61
62
63
64
65
66
67
68
69
70
71
72
73
74
75
76
77
78
79
80
81
82
83
84
85
86
87
88
89
90
91
92
93
94
95
96
97
98
99
100
101
102
103
104
105
106
107
108
109
110
111
112
113
114
115
116
117
118
119
120
121
122
123
124
125
126
127
128
129
130
131
132
133
134
135
136
137
138
139
140
141
142
143
144
145
146
147
148
149
150
151
152
153
154
155
156
157
158
159
160
161
162
163
164
165
166
167
168
169
170
171
172
173
174
175
176
177
178
179
180
181
182
183
184
185
186
187
188
189
190
191
192
193
194
195
196
197
198
199
200
201
202
203
204
205
206
207
208
209
210
211
212
213
214
215
216
217
218
219
220
221
222
223
224
225
226
227
228
229
230
231
232
233
234
235
236
237
238
239
240
241
242
243
244
245
246
247
248
249
250
251
252
253
254
255
256
257
258
259
260
261
262
263
264
265
266
267
268
269
270
271
272
273
274
275
276
277
278
279
280
281
282
283
284
285
286
287
288
289
290
291
292
293
294
295
296
297
298
299
300
301
302
303
304
305
306
307
308
309
310
311
312
313
314
315
316
317
318
319
320
321
322
323
324
325
326
327
328
329
330
331
332
333
334
335
336
337
338
339
340
341
342
343
344
345
346
347
348
349
350
351
352
353
354
355
356
357
358
359
360
361
362
363
364
365
366
367
368
369
370
371
372
373
374
375
376
377
378
379
380
381
382
383
384
385
386
387
388
389
390
391
392
393
394
395
396
397
398
399
400
401
402
403
404
405
406
407
408
409
410
411
412
413
414
415
416
417
418
419
420
421
422
423
424
425
426
427
428
429
430
431
432
433
434
435
436
437
438
439
440
441
442
443
444
445
446
447
448
449
450
451
452
453
454
455
456
457
458
459
460
461
462
463
464
465
466
467
468
469
470
471
472
473
474
475
476
477
478
479
480
481
482
483
484
485
486
487
488
489
490
491
492
493
494
495
496
497
498
499
</DataArray>
<DataArray NumberOfComponents='1' type='Int8' Name='IsActive' format='ascii'>
1
0
1
1
0
1
1
1
1
1
1
1
1
1
1
1
1
1
1
1
0
1
1
1
1
0
1
0
1
1
0
1
1
1
1
1
1
0
1
1
1
1
1
1
0
1
1
0
1
1
1
1
0
1
1
1
1
1
1
1
1
1
1
1
1
1
1
1
1
1
0
1
1
1
1
1
1
1
0
1
1
0
1
0
0
1
1
0
1
1
1
1
0
1
0
1
1
1
1
1
1
1
0
1
0
1
1
0
0
1
1
1
1
1
1
1
1
1
1
1
1
1
1
1
1
1
0
1
0
1
1
1
1
1
1
1
1
0
1
1
1
1
1
0
0
1
1
1
1
1
1
1
0
0
1
1
1
1
1
1
1
1
0
0
1
1
1
1
1
1
1
1
0
1
1
1
1
1
1
0
1
1
1
1
1
1
1
1
0
1
0
1
0
1
1
1
0
1
0
1
0
1
1
1
1
0
1
1
1
1
0
0
0
1
1
0
1
1
1
1
0
1
1
1
0
1
1
1
1
1
1
1
1
0
1
1
1
1
1
1
1
1
1
1
0
1
1
1
1
1
1
0
1
1
1
1
1
1
1
1
0
1
0
0
0
1
1
1
1
1
1
1
0
1
0
1
1
0
1
1
1
1
1
1
1
1
1
1
1
1
1
1
0
1
1
1
1
1
1
1
1
0
1
0
1
1
1
1
1
1
1
1
1
0
1
1
1
1
1
1
1
1
1
1
1
0
1
1
0
1
1
1
1
1
1
1
1
1
1
0
1
1
1
1
1
1
0
0
1
1
1
1
1
1
1
1
1
1
1
1
0
1
1
0
1
1
1
1
1
1
1
1
1
1
0
1
1
1
1
1
1
1
1
1
1
1
0
0
1
0
1
1
0
1
0
1
1
1
1
1
1
1
0
1
1
1
1
1
1
0
1
1
1
1
0
1
1
1
1
0
1
1
1
0
1
1
1
1
1
0
1
1
0
0
1
1
1
1
0
1
1
1
0
1
1
1
1
1
1
1
1
1
1
1
1
1
1
0
1
1
1
1
1
1
1
1
1
0
1
1
1
1
1
1
0
1
1
1
1
1
1
1
1
1
1
0
1
1
1
1
1
1
1
1
1
1
1
1
1
0
</DataArray>
<DataArray NumberOfComponents='1' type='Int32' Name='ParticleTetID' format='ascii'>
96296
-50400
79807
46043
-102510
81754
69111
57744
17461
24149
28420
67329
14710
80501
44627
68684
17686
9084
6084
44865
-12127
101388
-98411
63562
38034
-102840
30642
-91191
100560
53172
-34180
20936
48228
3631
92094
42990
-69112
-42296
68379
23901
26431
102110
50165
43664
-90119
72376
94294
-93119
98775
20551
55378
80251
-25302
100560
100667
65854
78408
62739
9409
12026
41738
80228
25514
12322
2889
97058
95553
9173
16250
5470
-80727
56418
76955
-96019
80251
62113
4646
32230
-34180
57433
99295
-57434
71163
-42296
-102510
11070
32926
-50400
66490
69111
96090
38034
-104802
42851
-83399
64197
99903
28361
47597
33628
41368
97770
-96019
28572
-86274
66117
103056
-98765
-86274
88292
41229
54786
98069
37186
69314
14354
79730
91721
101245
32519
100821
104665
9084
67102
20723
47502
-98765
29984
-17626
81994
38453
100092
68684
103680
20546
31339
14826
-104802
70773
79141
-95998
48486
63167
-12127
-70156
97495
25406
31364
65611
91023
3699
88681
-83215
-102510
12535
36145
83491
28094
99903
103429
79701
24208
-96019
-17626
3912
20543
7900
669
74403
105750
97137
33462
-102840
80100
45722
54881
101445
1076
4670
-102840
-91248
55734
35488
19370
101509
35028
59274
97137
-96849
35278
-96019
18354
-85990
29563
54109
64738
-83215
80454
-85990
58480
-102840
83819
66355
13459
75771
-83215
100903
47661
67123
36821
-34180
-104802
-98210
103081
34558
-69112
79849
96192
-61396
80504
-70156
62609
61297
687
-102840
3266
67765
103232
81798
83652
75336
69970
97166
-99021
23270
17967
-83399
55146
104801
44625
49169
33323
17544
27918
-102510
45075
27434
57237
2176
79197
28705
-34180
7717
91020
9173
77282
36819
99980
48001
100807
-104802
100807
-42296
-93119
-98210
42295
60291
20039
20814
17238
90343
85474
-94130
47803
-25302
103055
30761
-99021
30264
98410
13589
96018
81773
38808
30167
32129
48258
101369
48520
247
105427
-61396
-34180
29932
59534
73474
79286
82908
23314
99670
16782
-24687
71397
-102840
509
16857
-83399
91020
71233
54872
11593
26528
81210
-42296
98716
100092
13626
49272
48413
57433
40129
23218
92463
49067
74099
-34180
101063
54159
-83215
47668
100092
71413
31552
103840
101354
36960
80652
15159
98826
-98411
104202
10792
3699
12848
35818
10160
-71594
-17626
49959
105962
-61396
81994
17189
51178
72635
51520
12149
69315
91334
38010
-17626
42330
17000
-83820
18335
76933
52151
100743
56271
15980
64003
77116
-91191
92212
-83215
45106
11498
90160
49482
35794
23804
7576
73921
26297
27886
22353
-70156
-34180
20957
-101044
44985
67718
-94130
22124
-42296
99597
4856
99809
-94130
77587
-93119
101509
-24687
96062
40580
18081
68118
42295
12322
-83215
16895
74275
23270
95343
-94130
54159
-99096
13478
22365
-94130
24798
83641
72635
-91248
51883
94787
58329
4048
98716
-102840
53363
75771
-102840
-24687
19424
91852
85820
-83399
-98210
84000
18255
15289
-34180
41229
58443
43723
47548
71355
20789
97981
56084
31450
70410
16803
67328
25037
16109
-50400
37982
25042
18335
32556
73184
88021
52981
70707
26431
-95447
36080
53550
100560
87974
96089
87735
-96019
41208
101063
8538
29984
64656
95063
71683
101063
83185
31667
-98411
45075
94274
62609
13303
69180
72326
58328
71977
39649
35600
66047
45364
46043
-102840
</DataArray>
<DataArray NumberOfComponents='3' type='Float32' Name='vels' format='ascii'>
6.592920 3.310402 0.000403
22.746117 0.571945 -0.290697
2.179480 0.011173 0.050729
22.163713 -4.524321 -0.014525
23.484112 -0.510887 0.083072
0.906791 -0.000241 0.004148
19.635848 0.564512 0.326116
25.101366 0.970429 0.043490
6.729861 2.945598 0.007067
7.766483 1.055831 -0.005004
1.219406 -0.277704 0.005610
1.463315 -0.004710 0.008431
7.470703 2.351486 0.010519
4.371287 -0.127143 -0.000299
12.001874 4.392546 -0.017286
18.015948 -1.044250 0.001393
29.484603 -4.569893 0.019002
22.523989 1.025650 0.035542
9.096325 0.336484 -0.000804
18.986668 1.108352 -0.000172
21.835456 0.067503 1.640637
-0.089695 0.035392 -0.002408
20.051412 -0.328575 -0.076616
1.980331 0.003161 0.004908
15.495977 -0.422985 0.122201
22.591256 -0.226395 0.244628
3.102314 0.649120 -0.228619
21.418610 0.522880 0.667956
0.111128 0.035044 -0.014697
6.165954 0.081603 -0.000850
22.058982 -0.221339 0.905368
2.880392 -0.052689 0.000224
5.241072 0.038625 -0.023436
7.999162 -2.649972 -0.018281
11.399444 0.493951 -0.003200
26.230775 3.534905 -0.018024
19.690416 0.183231 -1.354405
17.262796 -0.581290 -0.236368
8.681929 8.461739 -0.079928
23.808208 -0.027618 0.020221
8.309666 -0.350136 0.001135
2.175366 -0.053627 0.000004
2.390750 -0.017831 -0.000560
7.269077 -0.046820 -0.015198
23.253517 -0.506630 -0.243077
7.736854 0.052867 0.257919
0.086868 0.027946 -0.002452
21.234953 -0.478901 -0.021576
0.965795 -0.028659 0.023124
32.933438 0.429350 -0.000213
20.424522 -1.753052 -0.028698
0.097312 -0.028064 0.009899
23.583462 0.705706 0.031841
0.155282 0.040411 -0.018817
6.520809 -0.070825 -0.001669
5.472273 -3.534698 -0.000530
6.050367 0.183424 0.003385
5.744735 -4.252849 -0.026245
20.368930 -1.795993 -0.002520
9.728290 -0.213951 -0.000419
9.538653 -1.933991 0.003157
18.977376 -0.898411 -0.099931
1.283499 -0.003687 0.012466
28.366373 -5.474056 -0.022561
23.513362 -0.431727 0.026147
1.467465 -0.000831 -0.000747
9.791928 -1.791042 -0.000373
19.968848 -1.745099 -0.031620
15.974363 -1.752837 -0.002051
19.883276 1.910320 -0.028581
20.829917 -0.376475 0.351593
5.752989 -1.085375 -0.011346
10.061094 0.332571 0.000191
21.624399 0.251894 -0.102345
0.051923 0.007783 -0.000193
2.976917 0.532623 -0.000544
23.082451 -8.527701 0.015421
19.045946 -3.521603 0.009768
22.453575 -0.519201 0.546982
22.282614 -0.601744 0.743208
0.128661 -0.001544 -0.009308
22.318605 -0.637696 0.060034
23.629713 0.114595 -0.058672
17.872999 -0.508012 -0.210598
21.544261 -0.576351 -0.237666
3.873999 -0.097937 0.000510
9.623827 0.086395 0.008922
22.850020 0.504740 0.291769
17.785774 1.309726 0.021272
19.940445 0.354513 0.419199
13.557696 1.289870 0.010813
17.438428 -0.957012 0.008029
22.928140 -0.721532 0.020940
25.273894 -5.519022 -0.010642
21.674624 0.629290 -1.020716
0.713503 -0.008524 -0.002489
0.303474 0.044807 0.003199
17.785093 -3.920166 -0.001012
25.920157 -0.047687 0.012145
16.710672 -2.608695 -0.023086
7.317755 -0.072408 0.002530
-0.010220 -0.011124 -0.024867
16.604183 0.954922 -1.554912
19.517087 2.007228 0.083952
22.200797 0.725471 -0.532589
19.619688 -1.574738 -0.146960
22.801114 0.938592 0.079789
23.505890 -0.017541 0.011079
21.587448 0.974728 -0.641169
14.942514 -0.751998 -0.051107
17.782819 1.171567 0.040207
24.338275 0.213844 -0.017378
2.293565 0.018275 -0.000223
21.219832 1.796620 0.033393
10.156644 4.241935 0.026473
4.883569 -0.019183 0.000071
21.991341 -1.140467 0.114738
19.063079 -1.642845 -0.037833
0.024938 0.005527 -0.015227
2.960231 0.252160 -0.317049
0.316076 0.007482 0.006358
12.376826 -4.843020 -0.009739
23.524246 1.180273 0.031760
20.105538 0.890951 0.053242
35.465009 -4.900084 0.007019
7.196093 0.351839 0.017752
23.130137 -0.019389 0.136113
26.665806 -10.080378 -0.038889
21.975496 -0.398811 0.347033
16.292253 -2.062806 -0.052853
8.574429 -1.088242 0.004953
0.004404 0.023619 -0.008319
16.848531 -0.892311 -0.060663
23.996804 -0.023555 -0.033377
18.496377 4.379784 0.022593
30.371889 7.047024 0.024399
27.564159 -4.573388 0.011231
23.078656 -0.988561 -0.027553
3.589585 0.000466 0.013077
5.676615 -0.016483 0.003214
22.910553 -0.665074 -0.024346
31.097419 -1.115934 -0.006616
28.242567 1.002579 0.080652
23.086697 0.462772 0.127130
20.097993 -0.001831 0.998274
6.363911 0.033112 0.053036
4.478819 -0.020329 0.032563
14.769696 -0.730350 -0.178586
28.941923 -0.224237 -0.012755
27.407223 -1.706915 0.002765
21.213387 2.431615 -0.045142
11.091470 0.758342 -0.003094
23.785807 0.531745 -0.031865
21.848852 0.420922 0.793156
5.052092 0.069098 0.006370
8.228744 0.146419 0.028078
8.463485 -0.059128 -0.011880
4.019329 -1.756007 0.001399
0.116685 -0.015750 0.021989
6.236302 1.430775 -0.000689
18.975253 -4.523023 -0.022940
10.574059 0.368723 0.055249
19.581049 0.422816 -0.371368
23.074533 -0.332614 -0.039117
15.599165 -1.480868 0.000999
18.825492 -3.727683 -0.035444
10.069190 -1.636398 0.011742
21.547213 -3.800388 0.006679
10.467381 -0.326253 0.022025
10.454549 -0.130605 0.003257
-0.009043 -0.004621 0.003297
17.352954 1.895752 0.032288
23.744358 -0.623742 0.078356
6.840253 2.838727 -0.010608
20.912539 3.963685 -0.003141
18.390650 -4.324197 -0.022058
0.338041 -0.006346 0.004523
20.895370 -3.538574 -0.005853
16.190272 -6.334913 0.005370
22.731125 -0.410106 -0.267865
16.903104 -0.287756 -3.000994
12.238180 1.541075 -0.042168
17.401475 -9.031277 0.023745
14.769005 0.931595 0.059068
-0.029027 -0.001850 0.022500
17.399877 -1.331500 0.047449
24.746289 0.122267 0.031267
-0.064004 -0.000305 -0.001577
22.474392 0.693944 0.051149
11.851892 0.441467 0.001663
16.990761 0.499263 -0.526326
18.184351 4.886287 0.012452
22.424382 0.267650 -0.125181
19.597783 -1.650393 0.132044
0.928181 0.008541 0.004410
19.804915 0.836446 0.210734
23.805036 0.246133 -0.090822
4.139403 -0.023216 -0.008806
17.974424 -0.188307 1.097113
14.233931 -1.891567 0.010732
22.916248 -0.253452 -0.514480
19.279878 -0.522172 0.376024
5.080425 0.106723 -0.003463
20.702007 6.081921 0.028097
6.016598 -0.031831 -0.004402
23.480659 0.156312 -0.174877
-0.034859 0.038234 -0.003704
18.935091 -1.324587 -0.094904
18.563731 1.220854 -0.033745
3.082571 -0.001458 0.000333
23.583081 -0.560089 0.024302
23.161558 -0.767744 -0.045548
20.291565 1.561776 -0.694303
18.044812 -1.490419 -0.047550
11.048499 -0.838727 -0.015692
21.410000 0.626257 0.310330
21.033366 1.541173 -0.126478
30.840911 -9.380236 0.021360
18.769647 0.377517 0.667154
1.967823 -0.004987 0.000901
17.750980 -0.020871 0.508239
28.056525 -1.350631 0.113538
8.388318 -0.830655 -0.008760
20.922886 -2.650645 0.022722
23.602854 -0.615112 0.038929
12.865742 -0.625066 -0.082005
17.631433 -3.382190 0.027856
9.778679 0.134107 0.000112
9.948368 -0.133994 -0.000249
9.671908 -9.060226 0.128594
26.766449 3.897757 0.027736
0.181491 -0.033482 0.012061
4.885645 0.115966 0.000611
21.328316 0.562810 0.238438
14.754262 -0.989496 0.048574
4.026708 0.013916 0.008259
22.195289 0.732663 -0.247530
8.709953 6.083195 -0.013405
22.384825 -1.274620 0.052491
4.036867 0.109464 0.010552
5.873128 -0.144034 0.005313
25.002734 12.370853 0.137323
20.539339 10.296457 0.026282
28.383494 10.992986 -0.053664
23.606339 -0.372745 -0.031862
2.537611 0.108016 -0.200828
28.639852 7.267193 -0.039219
4.563324 0.016422 0.018083
13.340112 -1.328518 0.005117
7.970955 -0.294426 0.003153
30.370599 0.895551 -0.036457
21.838368 -0.661170 -0.191753
6.153410 0.051430 0.023018
14.960558 0.771866 -0.060359
15.930186 -1.042297 -0.033020
6.648809 -1.003747 0.004554
26.960284 4.290401 -0.294173
0.050083 0.000308 0.048719
1.731191 0.011618 0.001015
-0.120409 0.038347 -0.009430
23.244983 -0.730652 -0.131282
0.201123 -0.036288 0.028026
20.722970 -0.207133 -0.102217
22.750940 -0.531753 0.033055
20.545453 -0.083357 -0.102342
19.718610 0.414921 -0.152620
4.551670 -0.074746 -0.000316
26.262623 -4.769775 -0.168220
7.535445 0.996689 0.007960
6.024393 0.373126 0.001817
18.766953 -1.252835 0.033989
0.049945 0.003139 -0.008223
22.049778 0.519534 -0.195881
22.571807 5.160880 -0.007474
23.087101 0.531150 0.110178
19.806455 1.370344 0.157359
18.417536 5.862933 0.001745
22.952633 -0.348073 -0.012363
18.699568 -1.563072 0.021723
19.695625 -0.719766 0.348695
18.064777 -1.415573 0.019206
20.229890 -0.166903 0.308708
11.231269 -1.069236 -0.038462
23.344372 1.059403 -0.023543
29.686962 1.661189 -0.119651
20.235518 -4.753888 -0.014314
20.276454 2.242176 0.019444
0.185211 0.000570 0.002752
18.880161 -0.537726 0.311576
10.183462 0.477460 0.002856
17.015776 2.332248 -0.018844
21.204620 0.562607 -0.004813
21.937366 -0.464106 0.805875
5.085780 -0.521180 -0.017970
8.193644 -0.212570 -0.007638
26.327984 7.126550 -0.031880
22.714238 2.929917 -0.000373
23.068290 -4.371303 -0.003753
27.664986 2.554911 -0.040872
3.551837 -0.048436 -0.000387
0.488185 2.038768 0.297798
20.779791 -0.017358 -0.071677
25.204499 -0.008767 -0.001186
23.147157 -0.174652 0.127549