<VTKFile type='UnstructuredGrid' version='1.0' byte_order='LittleEndian' header_type='UInt64'>
<UnstructuredGrid>
<Piece NumberOfCells='500' NumberOfPoints='500'>
<Points>
<DataArray NumberOfComponents='3' type='Float32' Name='Position' format='ascii'>
0.228914 0.612423 0.226443
0.465769 0.395007 0.117122
0.053426 0.979990 0.222942
0.323312 0.768622 0.184945
0.454158 0.741619 0.106093
0.051377 0.191696 0.247410
0.382225 0.299341 0.074230
0.235094 0.793504 0.208642
0.235408 0.614013 0.224992
0.209969 0.767148 0.226650
0.140485 0.249021 0.035450
0.037296 0.004907 0.058160
0.247579 0.540815 0.218948
0.110352 0.255035 0.237102
0.230056 0.689899 0.214464
0.362502 0.884433 0.150410
0.231372 0.325389 0.204210
0.229954 0.927472 0.160813
0.015721 0.794569 0.219067
0.354519 0.115873 0.112860
0.452474 0.280649 0.144789
0.016193 0.097506 0.236326
0.390714 0.693411 0.078215
0.039091 0.991457 0.150759
0.386834 0.878427 0.131549
0.453033 0.694606 0.118885
0.452216 0.500626 0.100044
0.437579 0.365580 0.160244
0.031920 0.845935 0.003292
0.115139 0.935590 0.218037
0.467414 0.665380 0.151924
0.091984 0.312351 0.242808
0.137683 0.959775 0.185093
0.273938 0.633050 0.181242
0.201497 0.954743 0.127273
0.307397 0.587970 0.202121
0.380528 0.293459 0.078098
0.393609 0.140855 0.123390
0.173907 0.567503 0.046348
0.265880 0.095604 0.068304
0.173246 0.092202 0.216523
0.103366 0.292126 0.238177
0.077768 0.293513 0.006191
0.092494 0.040481 0.032480
0.474784 0.642112 0.116259
0.046728 0.525809 0.007237
0.027004 0.124739 0.022110
0.433134 0.695230 0.165825
0.235412 0.928653 0.106706
0.268605 0.638466 0.198583
0.359256 0.847290 0.171707
0.019985 0.669932 0.220861
0.481286 0.369684 0.131539
0.031810 0.847062 0.004192
0.159041 0.478352 0.227620
0.138354 0.393328 0.207146
0.117982 0.854160 0.230549
0.265597 0.458249 0.039882
0.332408 0.905781 0.120572
0.130822 0.048357 0.164776
0.147738 0.254631 0.027339
0.366956 0.830736 0.174096
0.052364 0.993514 0.192583
0.332263 0.605359 0.188909
0.248033 0.647697 0.043096
0.045564 0.723112 0.004760
0.077407 0.389747 0.030768
0.369704 0.896100 0.128679
0.189104 0.108200 0.204536
0.344587 0.112327 0.156145
0.394279 0.181677 0.158158
0.200639 0.467897 0.026132
0.190264 0.960327 0.113994
0.390828 0.840011 0.088173
0.041791 0.652868 0.243263
0.094479 0.578138 0.029802
0.301706 0.663514 0.056164
0.355739 0.686192 0.068135
0.447056 0.628841 0.155944
0.447186 0.573270 0.150053
0.012379 0.206930 0.215842
0.460817 0.596722 0.150487
0.290818 0.907149 0.069305
0.408125 0.138385 0.120654
0.469614 0.752274 0.121937
0.103697 0.256276 0.239046
0.104224 0.964140 0.185232
0.461815 0.397263 0.134189
0.301131 0.089949 0.105047
0.405431 0.275854 0.077883
0.170488 0.584696 0.020970
0.375785 0.884825 0.123986
0.475134 0.625750 0.136712
0.200315 0.250387 0.039118
0.460968 0.411610 0.106643
0.046418 0.613370 0.248744
0.012833 0.555764 0.248677
0.343444 0.775903 0.193929
0.242014 0.833159 0.049017
0.174506 0.148251 0.201901
0.281814 0.254038 0.047014
0.018181 0.985085 0.179347
0.443574 0.793508 0.102478
0.438555 0.422172 0.084160
0.447107 0.781829 0.133951
0.399059 0.693576 0.177182
0.461556 0.433181 0.096254
0.459805 0.262216 0.125040
0.445749 0.778611 0.128972
0.189373 0.052217 0.117233
0.369730 0.128320 0.091194
0.396920 0.467213 0.178970
0.046923 0.907569 0.240964
0.463748 0.447615 0.103455
0.227691 0.690733 0.215280
0.268087 0.703223 0.042000
0.452411 0.573535 0.097291
0.337335 0.873570 0.171809
0.020638 0.992334 0.223547
0.428361 0.499197 0.080722
0.025771 0.042332 0.006229
0.154781 0.323743 0.213875
0.235979 0.924327 0.155292
0.306815 0.080204 0.124931
0.244293 0.652281 0.187164
0.183354 0.897576 0.029634
0.445181 0.215601 0.135216
0.313343 0.623534 0.192246
0.447801 0.755613 0.099654
0.208009 0.124095 0.038290
0.190907 0.170604 0.226140
0.014667 0.502217 0.223820
0.374509 0.861148 0.166861
0.299019 0.070784 0.150669
0.443015 0.432564 0.078349
0.298565 0.315040 0.053001
0.291301 0.437013 0.197487
0.462899 0.615111 0.126279
0.084613 0.983899 0.099709
0.154044 0.491402 0.235249
0.477609 0.567229 0.122381
0.282132 0.693519 0.051537
0.268930 0.357392 0.039764
0.459497 0.337343 0.143683
0.435882 0.723568 0.159121
0.094191 0.968206 0.190358
0.104488 0.019742 0.101684
0.375750 0.724133 0.180658
0.251453 0.317356 0.046587
0.224947 0.334572 0.038460
0.317375 0.131962 0.168834
0.238206 0.866474 0.204846
0.468998 0.300839 0.133035
0.453220 0.745858 0.143756
0.175748 0.957041 0.088633
0.169388 0.959057 0.173976
0.081586 0.038889 0.160301
0.187919 0.434767 0.033636
0.025648 0.567598 0.248007
0.265337 0.560634 0.224373
0.343591 0.651143 0.181024
0.176130 0.949620 0.175020
0.384820 0.819675 0.093327
0.443268 0.772210 0.114335
0.159194 0.145975 0.223589
0.348229 0.645762 0.178000
0.305889 0.817418 0.182694
0.435558 0.553963 0.094697
0.154979 0.047825 0.167082
0.086405 0.035911 0.168008
0.039956 0.988502 0.126644
0.318235 0.167316 0.064969
0.447290 0.709144 0.135552
0.228355 0.686655 0.217097
0.434171 0.448268 0.153937
0.353813 0.615648 0.180259
0.023394 0.986151 0.004291
0.468235 0.541841 0.123731
0.333763 0.668420 0.185239
0.447458 0.699616 0.110083
0.433493 0.595927 0.095494
0.239532 0.857361 0.041763
0.249515 0.351040 0.209469
0.206716 0.938022 0.170776
0.023177 0.015159 0.077526
0.300312 0.896654 0.090547
0.290734 0.912278 0.072624
0.038473 0.988964 0.139230
0.467704 0.410810 0.125505
0.143355 0.782199 0.237403
0.428140 0.796236 0.092386
0.343876 0.372785 0.060904
0.438830 0.265605 0.149897
0.356361 0.656410 0.075965
0.024076 0.884988 0.247497
0.392134 0.276295 0.074496
0.465828 0.292073 0.126130
0.083009 0.047580 0.156975
0.428474 0.223220 0.163667
0.215185 0.134343 0.036809
0.439699 0.701780 0.102085
0.379985 0.738680 0.072785
0.131239 0.897946 0.019958
0.316117 0.265938 0.054429
0.140628 0.033290 0.190264
0.478794 0.279862 0.118369
0.021663 0.156927 0.235089
0.381328 0.822771 0.174156
0.351396 0.112697 0.143910
0.071069 0.475456 0.241699
0.471656 0.632657 0.131522
0.460238 0.625544 0.126330
0.416428 0.844828 0.128430
0.335123 0.904723 0.123474
0.228966 0.095914 0.044044
0.449800 0.275279 0.102512
0.443325 0.427018 0.155978
0.270687 0.667252 0.062150
0.402165 0.327536 0.173902
0.045871 0.025931 0.024394
0.439304 0.740549 0.157736
0.360081 0.465513 0.062230
0.179836 0.151729 0.026586
0.472128 0.546365 0.107765
0.445157 0.697898 0.143428
0.103641 0.051083 0.128125
0.388135 0.590140 0.074623
0.081103 0.535862 0.015203
0.132278 0.026925 0.097987
0.301391 0.432279 0.203177
0.275778 0.217659 0.053786
0.039403 0.709305 0.240334
0.149593 0.596989 0.013233
0.450723 0.228317 0.136500
0.212588 0.065031 0.168298
0.011700 0.970902 0.215273
0.455322 0.416872 0.099079
0.238764 0.594529 0.035373
0.476591 0.554070 0.132263
0.103094 0.927902 0.205401
0.110661 0.114354 0.021762
0.246194 0.621221 0.210156
0.343205 0.421312 0.066403
0.271757 0.398320 0.185992
0.463038 0.720790 0.113128
0.343578 0.506571 0.063337
0.238365 0.628617 0.043416
0.097925 0.980994 0.159676
0.179964 0.121030 0.213618
0.029606 0.208347 0.022229
0.204112 0.618396 0.200115
0.475166 0.649935 0.142882
0.110943 0.972869 0.141048
0.208771 0.947290 0.114665
0.356836 0.900366 0.136793
0.181752 0.413488 0.228959
0.441227 0.522341 0.103885
0.011622 0.996875 0.039880
0.038603 0.793156 0.006779
0.012183 0.620390 0.217271
0.461457 0.579256 0.139391
0.030728 0.623591 0.241910
0.397297 0.140713 0.115168
0.441814 0.673534 0.153893
0.407769 0.831902 0.151214
0.377980 0.138044 0.150293
0.053802 0.395147 0.009873
0.466535 0.478231 0.109865
0.389680 0.385092 0.074085
0.156902 0.776431 0.231278
0.350301 0.869159 0.088422
0.035952 0.189984 0.014878
0.452892 0.342706 0.092183
0.304198 0.395735 0.173116
0.468193 0.373081 0.111639
0.437138 0.406811 0.082157
0.322683 0.416061 0.074976
0.452134 0.252201 0.107882
0.334331 0.905346 0.103663
0.401409 0.685002 0.078293
0.354924 0.868101 0.081576
0.377074 0.852879 0.091690
0.200074 0.119477 0.039315
0.238280 0.924875 0.104825
0.306662 0.415100 0.199174
0.209030 0.199818 0.029839
0.314779 0.121263 0.069120
0.047072 0.964687 0.237806
0.371479 0.823305 0.076778
0.003980 0.744361 0.029704
0.237778 0.864713 0.210894
0.375516 0.337052 0.165216
0.470573 0.667411 0.131000
0.146772 0.481772 0.210994
0.151585 0.067235 0.034575
0.231939 0.638200 0.038773
0.347695 0.101354 0.148708
0.209254 0.200241 0.037834
0.481901 0.519377 0.111851
0.174091 0.486770 0.226392
0.412287 0.511078 0.165885
0.399871 0.164376 0.095094
0.247081 0.809760 0.206222
0.465526 0.678454 0.139970
0.262691 0.625041 0.214714
0.252349 0.293103 0.041104
0.451514 0.420055 0.103054
0.245625 0.948237 0.124146
0.020784 0.142669 0.028495
0.214782 0.924568 0.070122
0.324890 0.279921 0.059623
0.187057 0.489917 0.017004
0.262414 0.926136 0.081177
0.408184 0.154341 0.133742
0.318671 0.090606 0.151472
0.017928 0.507002 0.235360
0.295169 0.343341 0.043107
0.134869 0.319394 0.232807
0.254567 0.917560 0.118222
0.414936 0.600369 0.167528
0.259744 0.682315 0.042428
0.381715 0.724403 0.183635
0.203887 0.607285 0.036705
0.088984 0.979169 0.193374
0.039039 0.426861 0.016394
0.456004 0.658260 0.147935
0.029184 0.374271 0.240242
0.172926 0.062421 0.038090
0.459499 0.267413 0.118541
0.354201 0.386236 0.177647
0.012000 0.516213 0.243732
0.024978 0.434976 0.227789
0.097957 0.039689 0.044620
0.329762 0.121870 0.076055
0.008804 0.606735 0.000420
0.314249 0.109756 0.077075
0.260044 0.553733 0.043077
0.250628 0.616117 0.031376
0.008552 0.280959 0.235981
0.444881 0.698115 0.096548
0.354985 0.735677 0.188799
0.240814 0.533878 0.043404
0.336275 0.111466 0.169875
0.098134 0.961082 0.068587
0.023465 0.130784 0.025678
0.426806 0.408678 0.078118
0.008001 0.890961 0.248921
0.455651 0.741792 0.124643
0.370139 0.524212 0.071636
0.282559 0.547597 0.201374
0.405857 0.318870 0.172714
0.209479 0.113412 0.043457
0.017276 0.982717 0.218094
0.462003 0.441093 0.139860
0.165589 0.899054 0.224349
0.426412 0.532935 0.084661
0.058321 0.010102 0.206207
0.295219 0.915604 0.137255
0.248777 0.841296 0.205040
0.201556 0.892094 0.044355
0.473559 0.745750 0.123225
0.350254 0.109520 0.137421
0.111409 0.952660 0.200164
0.444359 0.734654 0.086611
0.083921 0.028171 0.042383
0.094863 0.020662 0.161839
0.431316 0.483580 0.083998
0.016826 0.746781 0.011442
0.364041 0.195625 0.079144
0.246002 0.273028 0.216338
0.349862 0.504388 0.065361
0.029256 0.536937 0.226549
0.433583 0.371223 0.165753
0.169914 0.857078 0.035463
0.457484 0.307816 0.113849
0.472528 0.492176 0.113591
0.279825 0.879285 0.182033
0.174050 0.142935 0.216714
0.339513 0.414717 0.186462
0.255125 0.934584 0.140989
0.345042 0.107240 0.103545
0.293877 0.125025 0.185429
0.122360 0.037788 0.209815
0.352864 0.129605 0.173753
0.460379 0.476084 0.142154
0.175683 0.955254 0.089040
0.438333 0.762479 0.158015
0.474686 0.634932 0.136807
0.109699 0.975794 0.095106
0.029425 0.000789 0.183782
0.269344 0.881298 0.057711
0.073377 0.485057 0.010040
0.470469 0.385983 0.104201
0.335934 0.430587 0.187443
0.417822 0.152250 0.133173
0.219574 0.633838 0.027293
0.184201 0.122231 0.208496
0.029096 0.983291 0.020009
0.365591 0.368604 0.080300
0.203321 0.449091 0.220110
0.436939 0.662476 0.167556
0.018989 0.015217 0.080034
0.422254 0.178771 0.097946
0.019193 0.961164 0.014652
0.293751 0.913105 0.077857
0.183775 0.104407 0.207867
0.307136 0.592801 0.206986
0.391183 0.137450 0.149250
0.345817 0.584372 0.191753
0.460004 0.318138 0.121277
0.226984 0.458548 0.207773
0.293887 0.235106 0.051320
0.216206 0.061955 0.171650
0.067973 0.989305 0.168777
0.424613 0.329996 0.088511
0.183602 0.075929 0.034278
0.458609 0.430953 0.143099
0.365684 0.790819 0.176162
0.382789 0.505087 0.180397
0.426984 0.330891 0.088962
0.315820 0.745841 0.054538
0.099687 0.100827 0.018583
0.144865 0.902748 0.218943
0.437298 0.623096 0.088905
0.260126 0.441713 0.197575
0.348748 0.531028 0.060785
0.410765 0.336761 0.073762
0.202244 0.648252 0.224125
0.293470 0.100867 0.159922
0.459955 0.685057 0.111865
0.374130 0.463129 0.073636
0.126048 0.036082 0.193779
0.441421 0.685874 0.149519
0.434233 0.207143 0.104390
0.484027 0.481900 0.132570
0.120587 0.537253 0.016497
0.227802 0.398488 0.199622
0.446760 0.409084 0.096342
0.425237 0.835428 0.140567
0.209889 0.406024 0.024978
0.325391 0.088338 0.121320
0.254285 0.798080 0.044738
0.472531 0.654297 0.128995
0.368122 0.125470 0.089556
0.472813 0.481942 0.113743
0.271284 0.317220 0.047960
0.312181 0.237348 0.195612
0.242757 0.130378 0.200773
0.344235 0.900937 0.110709
0.034669 0.620104 0.004701
0.023837 0.689031 0.246758
0.253449 0.113464 0.180520
0.198208 0.287793 0.030912
0.426102 0.460075 0.080908
0.034783 0.639958 0.011097
0.226968 0.641396 0.042676
0.211563 0.333117 0.221498
0.466801 0.396918 0.132852
0.383948 0.138266 0.153757
0.283470 0.422512 0.209279
0.082369 0.026340 0.042146
0.245400 0.853431 0.045459
0.357569 0.590184 0.176849
0.039808 0.571335 0.015276
0.211568 0.519019 0.218096
0.201455 0.046600 0.161929
0.187969 0.084127 0.212700
0.433270 0.357460 0.159386
0.238963 0.676325 0.019604
0.322014 0.236754 0.182901
0.033819 0.846309 0.001391
0.205767 0.843797 0.221410
0.021217 0.957488 0.011528
0.031467 0.002733 0.207908
0.434003 0.805633 0.097688
0.201212 0.121359 0.199844
0.029749 0.372658 0.238749
0.170683 0.869096 0.036121
0.325511 0.602289 0.192194
0.475462 0.507829 0.127050
0.021892 0.945102 0.000888
0.258595 0.333979 0.205837
0.019320 0.386942 0.244476
0.363421 0.848057 0.077729
0.132700 0.945382 0.053894
0.434485 0.714654 0.089808
0.345631 0.504988 0.064186
0.134723 0.948046 0.053699
0.360836 0.466747 0.063375
0.314910 0.560280 0.200500
0.262475 0.923537 0.089398
0.238082 0.944366 0.108562
0.096759 0.975265 0.072699
0.097107 0.021026 0.057312
0.100822 0.039021 0.174848
0.297490 0.088812 0.157128
0.308260 0.199785 0.184701
0.268536 0.137409 0.199146
0.285594 0.786306 0.186144
0.472515 0.671865 0.124064
</DataArray>
</Points>
<PointData>
<DataArray NumberOfComponents='1' type='Int32' Name='ParticleType' format='ascii'>
1
1
1
1
1
1
1
1
1
1
1
1
1
1
1
1
1
1
1
1
1
1
1
1
1
1
1
1
1
1
1
1
1
1
1
1
1
1
1
1
1
1
1
1
1
1
1
1
1
1
1
1
1
1
1
1
1
1
1
1
1
1
1
1
1
1
1
1
1
1
1
1
1
1
1
1
1
1
1
1
1
1
1
1
1
1
1
1
1
1
1
1
1
1
1
1
1
1
1
1
1
1
1
1
1
1
1
1
1
1
1
1
1
1
1
1
1
1
1
1
1
1
1
1
1
1
1
1
1
1
1
1
1
1
1
1
1
1
1
1
1
1
1
1
1
1
1
1
1
1
1
1
1
1
1
1
1
1
1
1
1
1
1
1
1
1
1
1
1
1
1
1
1
1
1
1
1
1
1
1
1
1
1
1
1
1
1
1
1
1
1
1
1
1
1
1
1
1
1
1
1
1
1
1
1
1
1
1
1
1
1
1
1
1
1
1
1
1
1
1
1
1
1
1
1
1
1
1
1
1
1
1
1
1
1
1
1
1
1
1
1
1
1
1
1
1
1
1
1
1
1
1
1
1
1
1
1
1
1
1
1
1
1
1
1
1
1
1
1
1
1
1
1
1
1
1
1
1
1
1
1
1
1
1
1
1
1
1
1
1
1
1
1
1
1
1
1
1
1
1
1
1
1
1
1
1
1
1
1
1
1
1
1
1
1
1
1
1
1
1
1
1
1
1
1
1
1
1
1
1
1
1
1
1
1
1
1
1
1
1
1
1
1
1
1
1
1
1
1
1
1
1
1
1
1
1
1
1
1
1
1
1
1
1
1
1
1
1
1
1
1
1
1
1
1
1
1
1
1
1
1
1
1
1
1
1
1
1
1
1
1
1
1
1
1
1
1
1
1
1
1
1
1
1
1
1
1
1
1
1
1
1
1
1
1
1
1
1
1
1
1
1
1
1
1
1
1
1
1
1
1
1
1
1
1
1
1
1
1
1
1
1
1
1
1
1
1
1
1
1
1
1
1
1
1
1
1
1
1
1
1
1
1
1
1
1
1
1
1
1
1
1
1
1
1
1
1
1
1
1
1
1
1
1
1
1
1
1
1
1
1
1
1
1
1
1
1
1
1
1
</DataArray>
<DataArray NumberOfComponents='1' type='Int32' Name='ParticleID' format='ascii'>
0
1
2
3
4
5
6
7
8
9
10
11
12
13
14
15
16
17
18
19
20
21
22
23
24
25
26
27
28
29
30
31
32
33
34
35
36
37
38
39
40
41
42
43
44
45
46
47
48
49
50
51
52
53
54
55
56
57
58
59
60
61
62
63
64
65
66
67
68
69
70
71
72
73
74
75
76
77
78
79
80
81
82
83
84
85
86
87
88
89
90
91
92
93
94
95
96
97
98
99
100
101
102
103
104
105
106
107
108
109
110
111
112
113
114
115
116
117
118
119
120
121
122
123
124
125
126
127
128
129
130
131
132
133
134
135
136
137
138
139
140
141
142
143
144
145
146
147
148
149
150
151
152
153
154
155
156
157
158
159
160
161
162
163
164
165
166
167
168
169
170
171
172
173
174
175
176
177
178
179
180
181
182
183
184
185
186
187
188
189
190
191
192
193
194
195
196
197
198
199
200
201
202
203
204
205
206
207
208
209
210
211
212
213
214
215
216
217
218
219
220
221
222
223
224
225
226
227
228
229
230
231
232
233
234
235
236
237
238
239
240
241
242
243
244
245
246
247
248
249
250
251
252
253
254
255
256
257
258
259
260
261
262
263
264
265
266
267
268
269
270
271
272
273
274
275
276
277
278
279
280
281
282
283
284
285
286
287
288
289
290
291
292
293
294
295
296
297
298
299
300
301
302
303
304
305
306
307
308
309
310
311
312
313
314
315
316
317
318
319
320
321
322
323
324
325
326
327
328
329
330
331
332
333
334
335
336
337
338
339
340
341
342
343
344
345
346
347
348
349
350
351
352
353
354
355
356
357
358
359
360
361
362
363
364
365
366
367
368
369
370
371
372
373
374
375
376
377
378
379
380
381
382
383
384
385
386
387
388
389
390
391
392
393
394
395
396
397
398
399
400
401
402
403
404
405
406
407
408
409
410
411
412
413
414
415
416
417
418
419
420
421
422
423
424
425
426
427
428
429
430
431
432
433
434
435
436
437
438
439
440
441
442
443
444
445
446
447
448
449
450
451
452
453
454
455
456
457
458
459
460
461
462
463
464
465
466
467
468
469
470
471
472
473
474
475
476
477
478
479
480
481
482
483
484
485
486
487
488
489
490
491
492
493
494
495
496
497
498
499
</DataArray>
<DataArray NumberOfComponents='1' type='Int8' Name='IsActive' format='ascii'>
1
1
1
1
1
1
1
1
1
1
1
1
1
1
1
1
1
1
1
1
1
1
1
1
1
1
1
1
1
1
1
1
1
1
1
1
1
1
1
1
1
1
1
1
1
1
1
1
1
1
1
1
1
1
1
1
1
1
1
1
1
1
1
1
1
1
1
1
1
1
1
1
1
1
1
1
1
1
1
1
1
1
1
1
1
1
1
1
1
1
1
1
1
1
1
1
1
1
1
1
1
1
1
1
1
1
1
1
1
1
1
1
1
1
1
1
1
1
1
1
1
1
1
1
1
1
1
1
1
1
1
1
1
1
1
1
1
1
1
1
1
1
1
1
1
1
1
1
1
1
1
1
1
1
1
1
1
1
1
1
1
1
1
1
1
1
1
1
1
1
1
1
1
1
1
1
1
1
1
1
1
1
1
1
1
1
1
1
1
1
1
1
1
1
1
1
1
1
1
1
1
1
1
1
1
1
1
1
1
1
1
1
1
1
1
1
1
1
1
1
1
1
1
1
1
1
1
1
1
1
1
1
1
1
1
1
1
1
1
1
1
1
1
1
1
1
1
1
1
1
1
1
1
1
1
1
1
1
1
1
1
1
1
1
1
1
1
1
1
1
1
1
1
1
1
1
1
1
1
1
1
1
1
1
1
1
1
1
1
1
1
1
1
1
1
1
1
1
1
1
1
1
1
1
1
1
1
1
1
1
1
1
1
1
1
1
1
1
1
1
1
1
1
1
1
1
1
1
1
1
1
1
1
1
1
1
1
1
1
1
1
1
1
1
1
1
1
1
1
1
1
1
1
1
1
1
1
1
1
1
1
1
1
1
1
1
1
1
1
1
1
1
1
1
1
1
1
1
1
1
1
1
1
1
1
1
1
1
1
1
1
1
1
1
1
1
1
1
1
1
1
1
1
1
1
1
1
1
1
1
1
1
1
1
1
1
1
1
1
1
1
1
1
1
1
1
1
1
1
1
1
1
1
1
1
1
1
1
1
1
1
1
1
1
1
1
1
1
1
1
1
1
1
1
1
1
1
1
1
1
1
1
1
1
1
1
1
1
1
1
1
1
1
1
1
1
1
1
1
1
1
1
1
1
1
1
1
1
1
1
1
1
1
1
1
1
1
1
1
1
</DataArray>
<DataArray NumberOfComponents='1' type='Int32' Name='ParticleTetID' format='ascii'>
24231
520
49095
2975
37686
88115
30481
4529
24231
104789
105540
106111
26796
26936
54852
35443
13791
3004
100932
80014
10519
101388
1550
62462
3346
9140
9009
81678
100560
101523
4570
95134
764
102909
83
534
27059
8117
41089
70141
104392
13259
50948
30912
23720
83524
94294
7225
1587
102908
22114
80251
161
100560
20579
69745
72948
14029
15654
85676
105540
22114
68009
534
86677
31104
56563
19317
104392
83051
29387
51052
4492
32469
80251
97531
47042
17747
10457
11206
99295
10774
62903
3761
28204
26936
25514
520
72279
9069
43966
19317
11092
93879
3231
94137
99903
14177
17548
103634
3325
101500
46385
28128
36323
16229
3231
10229
36323
56621
83585
9268
21429
3231
54852
49507
30854
21136
101245
4347
101233
51877
3004
74555
35630
61757
7461
1122
45867
22791
103634
100092
35443
65866
16068
10113
13573
8283
28202
19006
10262
43317
8126
43881
35808
25514
17510
19981
30260
6424
83051
100001
80666
35808
105597
39977
104709
49728
99903
26796
103862
39977
11320
46385
98840
40156
1651
9009
23867
104708
97137
13797
7225
54852
13304
76444
101445
9009
103862
9140
10262
25008
58700
3004
101509
16195
62903
97137
3231
78089
3025
5374
102940
18714
71593
30481
30812
104708
102941
22791
9140
29691
77909
66678
23867
10229
100903
36766
73637
105687
11092
8283
11010
15654
68114
30812
4598
47632
30747
26307
35808
23767
81246
14090
7225
20316
40917
65233
56123
33143
2006
69970
31833
4693
66501
17189
3231
104523
26490
101523
51117
102909
6427
49064
8846
21024
86677
89697
104392
99275
78663
11092
24855
310
15654
43338
9009
99980
101022
100807
10774
100807
9157
4570
15064
73637
95019
17455
4649
33854
77545
85474
46423
49064
690
4510
25183
4693
39368
1550
77545
32469
22791
1587
41836
44329
70735
49095
32469
100743
100001
15698
16337
2360
40869
84610
73955
14916
8124
2073
22598
44245
28281
7225
102908
50165
3231
1791
94294
76868
24790
36887
75589
3761
65866
100092
8126
51877
6257
11206
65087
19981
43966
25514
74099
4570
101063
44798
10229
80583
100092
79729
30912
95281
101354
70735
104523
54989
98826
9140
14085
18037
83051
85946
94294
24707
101139
28204
2842
516
30747
22791
101245
5879
65512
12087
90466
36801
28281
29535
28204
73955
103165
45867
31131
104709
12087
100743
929
44346
21024
77116
93448
39925
30812
8124
43467
98815
33143
7644
80014
48488
71307
83051
5879
105597
83787
11092
28202
101043
22210
96826
520
33143
3761
85440
36389
90633
27540
57099
4570
101509
3165
101224
62903
104392
534
50161
102064
58492
15360
4285
66501
89697
29480
56551
5879
11625
103472
29480
49895
84926
58662
30854
21952
21024
29480
83212
64899
9140
43601
71307
7225
7461
17455
30674
49524
3231
11010
21304
74556
72144
23720
83585
8124
10113
17735
1244
39368
101354
100054
1244
20997
16068
76206
84610
11135
520
73327
41836
31131
11130
76444
88021
14876
66501
104392
81678
84610
35153
100560
80609
101224
98033
46385
3104
101063
39925
534
9316
95063
15344
101063
48377
46669
44997
21024
46669
23767
504
6257
1587
85946
40784
104708
65866
38188
1244
1017
16337
</DataArray>
<DataArray NumberOfComponents='3' type='Float32' Name='vels' format='ascii'>
9.694972 0.027897 0.007563
23.033673 -0.386425 0.000868
1.677245 -0.012513 0.014697
17.306439 0.183733 -0.001201
22.229821 0.507491 -0.001755
0.747383 0.064628 -0.085376
19.191060 -0.274458 -0.001070
17.911115 0.122763 0.027379
10.034338 0.032448 0.007903
7.659560 0.050058 0.015030
2.030034 -0.005727 -0.000664
0.751721 -0.002346 0.116252
18.761707 0.017350 0.025580
4.324466 0.014537 0.011346
14.528400 0.051566 0.030611
17.164792 0.176912 -0.005004
13.925892 -0.060631 0.025950
14.375264 0.048469 0.008369
0.032747 -0.024713 -0.002894
17.818264 -0.178446 -0.007649
22.501187 -0.505968 -0.002599
0.054025 0.054799 -0.003315
19.525952 0.333345 -0.001697
-0.122885 0.000306 0.006846
18.331474 0.142902 0.028472
22.988981 0.478762 -0.000365
22.261629 -0.034070 0.000403
19.901207 -0.300388 -0.000197
0.134420 0.026102 -0.012282
1.072215 0.018687 0.003767
23.039697 0.456978 -0.000903
2.528237 0.016764 0.002479
6.336800 0.087872 0.058764
18.649251 0.088800 0.017825
9.935096 0.075402 -0.016055
17.109430 0.113544 0.008573
19.801396 -0.288989 -0.000891
19.844733 -0.244732 0.012338
14.137661 -0.020254 -0.085664
14.014697 -0.125850 -0.006519
9.142213 -0.100249 0.051152
3.941720 0.033890 0.006360
2.057636 0.022831 -0.011148
4.564300 -0.027318 -0.057543
21.179721 0.527526 -0.000437
0.085429 0.008995 -0.005052
-0.018158 0.022937 -0.000617
20.481021 0.406827 -0.002499
13.414589 0.128086 -0.062594
8.229195 0.055822 0.001492
15.763654 0.148945 -0.008945
-0.092112 -0.033395 0.005290
23.032415 -0.496080 -0.001728
0.113031 0.028164 -0.012322
7.548672 0.000152 0.030405
11.555355 0.014870 0.068750
5.741681 -0.027220 0.026516
12.620722 -0.023872 -0.007479
16.339314 0.093080 -0.001030
9.977639 -0.071907 0.049520
2.085148 -0.007563 -0.000710
17.764136 0.208343 0.002510
1.089711 -0.008491 0.010389
10.987367 0.085303 -0.000337
15.852570 0.060814 -0.021454
-0.013032 -0.039734 -0.008145
18.991727 0.082190 -0.015001
17.183551 0.110761 0.026662
7.021469 -0.056499 0.010093
16.553109 -0.141970 0.004205
20.865257 -0.303033 0.000494
10.149303 -0.002756 -0.022778
8.704666 0.068021 -0.032172
18.478618 0.203947 -0.005995
-0.103216 0.005616 0.000252
9.505050 -0.065364 -0.140251
15.647155 0.127458 -0.009088
18.405445 0.220429 -0.001857
22.436016 0.353359 -0.000230
22.263205 0.221009 -0.000420
-0.083853 -0.013244 -0.003747
22.911238 0.129911 -0.000529
14.864420 0.118623 -0.001176
19.456564 -0.234919 0.003760
22.680662 0.526068 -0.003659
3.862844 0.046838 0.037130
7.086541 0.038173 0.050141
22.707754 -0.407186 0.000781
15.675020 -0.108344 0.013112
19.662969 -0.339643 -0.000398
7.212422 -0.013395 -0.027001
18.088227 0.123658 0.021525
23.011540 0.563377 -0.000582
18.121812 -0.029391 -0.085534
22.992756 -0.465121 0.002160
0.333247 -0.016963 0.003755
0.280721 0.053687 -0.023787
15.104841 0.182103 -0.001440
13.251580 0.123057 -0.018214
1.656025 -0.014033 0.002594
14.585722 -0.123939 -0.014969
0.102202 0.000550 -0.052133
21.002372 0.474107 -0.003003
21.243126 -0.214237 0.000472
22.151972 0.458952 -0.003017
19.081128 0.295179 -0.000997
21.125206 -0.254611 0.001245
22.827130 -0.526766 -0.000396
22.285867 0.441629 -0.003116
10.972509 -0.105909 -0.023309
17.257856 -0.162082 0.006609
18.718821 -0.057449 0.000568
1.983454 -0.074456 0.049744
21.792194 -0.287995 0.002120
11.088351 0.053970 0.015834
11.945011 0.091146 -0.008053
21.934376 0.225338 0.001075
18.734355 0.178750 -0.004699
0.110177 0.004460 -0.039277
21.529427 0.031007 -0.000661
1.140289 0.191458 0.000763
2.763360 0.010095 -0.000853
14.303730 0.063174 0.005386
14.478127 -0.072824 0.004675
18.023081 0.058087 0.033783
6.987754 0.054800 -0.003117
21.360505 -0.461896 0.000372
17.845545 0.097642 0.004928
21.844023 0.362353 0.001770
9.849856 -0.104409 -0.033367
0.904798 -0.008067 0.000985
-0.202243 0.018906 -0.002273
17.322765 0.180697 -0.006657
16.005463 -0.108614 0.012319
21.087784 -0.178571 0.000370
14.855686 -0.120814 -0.006776
6.002466 -0.020749 0.000784
23.129669 0.392239 0.001158
3.640648 -0.007800 -0.031846
5.163220 -0.004959 0.010573
23.043956 0.273439 -0.000862
10.429572 0.087461 -0.004537
12.445606 -0.083498 -0.005490
22.593124 -0.484537 -0.000778
21.283345 0.432269 -0.002245
5.483107 0.010171 0.078640
4.672133 0.027939 0.044360
13.139205 0.210514 -0.002442
5.689404 -0.039632 -0.001928
12.126648 -0.048287 -0.024459
15.706744 -0.134458 -0.003323
6.322266 0.071716 0.004489
22.946807 -0.556466 -0.000962
22.416976 0.449609 -0.003938
5.271604 -0.007238 -0.028943
7.419783 0.059699 0.041679
0.095853 -0.000025 0.008632
10.310751 -0.000785 -0.031129
0.302171 0.006723 0.011631
18.969488 0.054412 0.009027
14.096324 0.166983 0.002778
7.555395 0.059871 0.037421
20.589995 0.234778 -0.003784
22.252049 0.439227 -0.002316
7.688142 -0.053116 0.014334
19.073288 0.184036 0.003478
16.879004 0.169311 0.001112
21.343454 0.185235 -0.001045
6.074873 -0.049254 0.052012
2.470071 -0.010599 0.011574
-0.033017 -0.004615 0.007094
19.051991 -0.196307 -0.006091
22.843466 0.482248 -0.001309
13.735421 0.045788 0.027495
20.983809 -0.055331 -0.000081
18.800896 0.159423 0.002054
0.272038 0.000327 0.000446
23.068447 0.163301 -0.000787
17.859974 0.177062 0.003746
20.753327 0.401256 -0.002360
20.994189 0.337120 -0.000710
11.138969 0.096719 -0.019018
12.720574 -0.067204 0.011869
5.275346 -0.025635 0.016895
0.068317 -0.004857 0.026045
15.467145 0.093197 -0.020498
15.422728 0.120730 0.004642
-0.054925 -0.000152 -0.002311
22.947965 -0.397451 0.000447
4.229149 0.004954 0.003866
20.579237 0.454839 -0.003051
12.180434 -0.144168 -0.000918
21.886176 -0.449400 -0.000360
9.218820 0.102454 -0.000776
0.628230 -0.039699 0.021700
19.186806 -0.306752 0.000173
22.971360 -0.555484 -0.002386
2.446011 -0.004179 0.033200
19.245597 -0.257340 0.009114
9.378417 -0.091104 -0.014099
21.332026 0.440142 -0.001806
19.375523 0.254291 -0.005100
9.404324 0.133699 -0.090506
15.561854 -0.176632 -0.009034
6.059784 -0.036677 0.045461
22.877115 -0.604948 -0.001666
0.041005 0.039110 0.001552
17.986747 0.231632 0.002711
17.005159 -0.147085 0.006714
2.696830 -0.004046 0.005783
23.023172 0.550235 0.000034
23.100594 0.348358 0.000336
20.403960 0.266866 0.003843
16.429847 0.096494 0.001068
9.800128 -0.077915 -0.013214
22.196759 -0.419774 0.000183
19.550401 -0.261642 0.001745
16.513232 0.097517 -0.013233
19.617002 -0.306317 0.001777
1.151798 -0.006162 0.034192
21.472649 0.448009 -0.002609
17.450405 -0.055807 -0.001921
7.637694 -0.058768 -0.024086
22.609642 0.181484 -0.000206
22.182574 0.515780 0.001005
10.669634 -0.015258 0.029307
19.829195 0.163974 -0.002045
5.207024 -0.017805 -0.043772
6.069980 -0.068539 -0.059436
9.762064 -0.034922 0.001781
10.960837 -0.121544 -0.003971
0.066859 -0.030459 0.008212
4.666939 -0.009800 -0.008922
22.735873 -0.359398 -0.002775
10.476838 -0.077447 -0.023552
1.603565 0.004184 -0.162201
20.466152 -0.272361 0.001008
9.901803 0.021076 -0.012110
22.962199 0.220026 -0.001550
0.315247 0.008416 0.001419
6.082498 0.095429 -0.047291
11.354424 0.046438 0.010849
18.354637 -0.102426 -0.002904
17.927547 -0.071265 0.015584
22.036985 0.437640 -0.001883
17.684308 0.006377 -0.002931
13.135632 0.036423 -0.022408
4.473821 0.012078 0.020522
9.224416 -0.100480 0.030926
0.001328 -0.001622 -0.007167
13.892166 0.015570 0.038594
22.405812 0.506436 -0.001422
7.633656 0.046663 0.038720
11.153875 0.081111 -0.017568
16.633898 0.115769 0.024578
7.236510 -0.010095 0.015554
22.505802 0.067545 -0.000280
0.481731 -0.011771 0.135071
0.121428 0.000275 -0.012652
-0.082461 0.025309 -0.013382
23.000917 0.188971 -0.001379
0.018392 -0.038567 0.016401
19.555341 -0.240233 0.006402
21.974738 0.421119 -0.000062
19.404036 0.226294 -0.001996
18.750795 -0.204156 0.000308
0.059277 -0.020318 -0.006213
22.638213 -0.009752 -0.001013
18.209316 -0.169262 -0.001031
15.558211 0.011824 0.099064
17.347878 0.176011 -0.007623
0.132688 0.010722 -0.010105
21.572027 -0.440102 -0.000220
19.666480 -0.089618 0.013055
22.853223 -0.437271 -0.000885
21.592599 -0.237056 -0.000011
20.969281 -0.166435 -0.003468
22.309954 -0.490557 0.002343
15.955985 0.099749 -0.004832
19.606417 0.344153 -0.001278
18.484762 0.231867 -0.005361
18.399456 0.207549 -0.012950
9.909926 -0.107854 -0.040631
13.844252 0.138611 -0.055189
15.215207 -0.076382 0.004765
11.418832 -0.089497 -0.027174
16.381242 -0.128669 -0.004065
0.909544 -0.000189 0.004548
16.961342 0.157076 -0.013852
-0.024221 0.016413 0.006186
8.190177 0.090226 0.007068
1.970926 -0.040205 -0.000479
21.414974 0.471784 -0.001106
12.262375 0.008563 0.100398
6.478819 -0.040047 -0.044141
14.651453 0.037767 -0.026218
16.314094 -0.115375 -0.007153
11.502640 -0.084089 -0.026092
22.648836 0.044574 0.000808
7.945205 -0.004623 0.025155
20.537290 0.019591 0.000877
19.566125 -0.266306 -0.005574
12.504808 0.107865 0.007079
22.560513 0.448595 -0.001137
11.289809 0.057358 0.007349
12.783064 -0.091237 -0.007981
20.492692 -0.293446 0.001031
12.094422 0.021762 -0.074403
0.074599 -0.007359 -0.006818
4.619142 0.021128 -0.007978