<VTKFile type='UnstructuredGrid' version='1.0' byte_order='LittleEndian' header_type='UInt64'>
<UnstructuredGrid>
<Piece NumberOfCells='500' NumberOfPoints='500'>
<Points>
<DataArray NumberOfComponents='3' type='Float32' Name='Position' format='ascii'>
0.809295 0.655959 0.227012
2.041913 0.322548 0.117272
0.184576 0.980011 0.221676
1.600698 0.863875 0.184910
2.006422 0.772777 0.106364
0.097489 0.192489 0.247424
1.871188 0.230421 0.075470
1.059421 0.884048 0.209811
0.793201 0.654942 0.224095
0.690802 0.785139 0.227950
0.739902 0.220875 0.034655
0.147968 0.007124 0.058333
0.802050 0.558569 0.219688
0.430761 0.253084 0.237182
0.789045 0.735933 0.214958
1.795026 0.905507 0.150511
0.991354 0.199016 0.203997
1.018143 0.952526 0.161634
0.469734 0.795219 0.218748
1.787042 0.098961 0.113589
2.053310 0.240382 0.149626
0.012235 0.100226 0.236504
1.914880 0.755274 0.078591
0.166788 0.990924 0.150431
1.829808 0.895825 0.128866
2.047684 0.745451 0.119795
1.034573 0.483341 0.096386
1.980469 0.302391 0.158885
0.033484 0.848026 0.004425
0.523439 0.936740 0.219352
2.049422 0.718082 0.151819
0.326774 0.311186 0.241758
0.556083 0.961593 0.184323
1.625003 0.787214 0.181185
0.826942 0.967495 0.128684
1.027050 0.770009 0.202536
1.933656 0.236219 0.076896
1.957675 0.120029 0.123298
0.899812 0.643909 0.045839
1.090071 0.053971 0.067070
0.635029 0.084154 0.215753
0.395318 0.289339 0.239406
0.239332 0.292592 0.006127
0.378984 0.038495 0.031487
2.007880 0.710244 0.115067
0.046144 0.525411 0.007699
0.027722 0.126545 0.020683
2.001995 0.747523 0.166309
1.036690 0.955686 0.105544
1.179545 0.823495 0.199578
1.791374 0.868906 0.171099
0.022705 0.668467 0.223984
2.008327 0.295468 0.130869
0.037134 0.849377 0.003357
0.697268 0.474055 0.227142
0.858410 0.325086 0.207037
0.499715 0.858670 0.230210
0.881431 0.412264 0.040794
1.564575 0.937804 0.118662
0.611904 0.045631 0.165801
0.709998 0.230944 0.027323
1.847265 0.857346 0.173343
0.130632 0.993146 0.192937
1.366537 0.817540 0.191289
1.135629 0.827642 0.043560
0.136701 0.723556 0.003810
0.692245 0.373910 0.029882
1.622197 0.932202 0.127770
0.875351 0.081102 0.205564
1.606726 0.070400 0.155661
1.980769 0.152895 0.156284
0.785838 0.453895 0.026665
0.749675 0.967287 0.114595
1.909710 0.859028 0.088336
0.042490 0.652797 0.243931
0.731328 0.595661 0.029400
1.486130 0.826993 0.054476
1.747862 0.761392 0.067786
2.032027 0.708061 0.156368
1.887573 0.666037 0.151808
0.013063 0.206174 0.214790
1.952841 0.672727 0.150244
1.163479 0.951562 0.067793
1.955439 0.120647 0.120998
2.027649 0.788814 0.122788
0.401651 0.252896 0.238805
0.486491 0.966396 0.185531
2.037782 0.301018 0.135393
1.533812 0.052195 0.105054
1.886664 0.227610 0.077257
0.645961 0.595341 0.021634
1.811996 0.903007 0.124584
2.041219 0.688146 0.137356
0.970061 0.158598 0.039351
1.979040 0.325926 0.106974
0.084308 0.613095 0.247935
0.023927 0.559404 0.248472
1.568806 0.868823 0.195567
1.130902 0.904901 0.048300
0.795966 0.123132 0.201765
1.222128 0.127337 0.046375
0.028728 0.986004 0.174457
2.030091 0.839346 0.098504
1.795082 0.338294 0.082892
2.041484 0.819601 0.133527
1.823181 0.747866 0.177625
1.847189 0.341805 0.095290
2.030378 0.211665 0.125291
2.051344 0.818365 0.128576
0.867189 0.038416 0.115993
1.747371 0.088853 0.091964
1.172189 0.222418 0.184547
0.215065 0.908531 0.241145
1.810594 0.358633 0.104217
0.818204 0.743664 0.214495
1.146159 0.855357 0.041209
1.857368 0.658274 0.095461
1.608404 0.925618 0.171715
0.025008 0.993638 0.221293
1.018407 0.493686 0.076231
0.077440 0.043418 0.005598
0.787779 0.279331 0.211934
0.984769 0.946673 0.155346
1.418453 0.037567 0.122943
1.325821 0.836648 0.187240
0.665077 0.903931 0.028589
2.022575 0.188149 0.135854
1.451891 0.818025 0.191269
2.023163 0.803616 0.100864
0.904387 0.088783 0.038133
0.667609 0.156574 0.225480
0.013401 0.502961 0.223768
1.784562 0.896850 0.166769
1.221612 0.040008 0.149140
1.701322 0.305764 0.076588
1.394928 0.149628 0.051373
1.037051 0.243810 0.200824
2.018896 0.681016 0.127061
0.382793 0.985087 0.100353
0.529448 0.490885 0.234222
1.905374 0.643900 0.119566
1.284714 0.848741 0.049383
1.108208 0.178501 0.040013
2.020581 0.271387 0.143559
2.029636 0.772421 0.161292
0.455724 0.969145 0.189985
0.418893 0.018434 0.101263
1.846896 0.783170 0.178558
1.183278 0.153916 0.046693
1.043275 0.180287 0.039264
1.598551 0.080458 0.169947
0.937291 0.908552 0.206239
2.007401 0.237211 0.132114
2.043957 0.792899 0.145899
0.756782 0.963294 0.089034
0.640122 0.961759 0.173299
0.466748 0.038326 0.161415
0.826315 0.398174 0.034684
0.034897 0.568019 0.249171
0.764111 0.579472 0.224731
1.692662 0.763030 0.182099
0.707191 0.955934 0.175832
1.966543 0.843734 0.093754
2.035106 0.799893 0.114166
0.699811 0.129666 0.224827
1.736310 0.760162 0.177092
1.661695 0.871711 0.182211
1.707434 0.669817 0.092134
0.677493 0.044214 0.167894
0.501496 0.032471 0.168679
0.038743 0.987989 0.128715
1.613030 0.114185 0.064441
2.002765 0.755692 0.135449
0.844374 0.750098 0.215991
1.719382 0.327810 0.155281
1.703218 0.734516 0.181457
0.042237 0.984910 0.005492
1.725631 0.650782 0.122975
1.628046 0.790838 0.185681
2.054804 0.758295 0.109029
1.945489 0.683130 0.096873
0.755909 0.877124 0.042498
0.911236 0.252102 0.208759
0.847422 0.952184 0.173831
0.021580 0.015508 0.078505
1.556656 0.939417 0.089655
1.110387 0.947119 0.071156
0.037962 0.989062 0.138557
1.987807 0.335928 0.126803
0.454026 0.784993 0.238293
2.014167 0.830135 0.092786
1.650125 0.237609 0.061603
2.006074 0.222603 0.150129
1.820636 0.733394 0.074924
0.097277 0.879240 0.247161
1.865180 0.215301 0.075569
2.022074 0.220839 0.125137
0.592208 0.043042 0.158658
2.024098 0.190148 0.166427
0.860817 0.101161 0.035863
2.031926 0.750208 0.100893
1.886322 0.784932 0.073177
0.504483 0.901403 0.018921
1.522996 0.149210 0.054791
0.501163 0.031417 0.189518
2.032852 0.230892 0.118425
0.017147 0.159208 0.234750
1.840185 0.847315 0.174206
1.742634 0.089864 0.145308
0.379434 0.477096 0.241632
2.045287 0.712677 0.129932
2.035427 0.694947 0.126864
1.998242 0.860931 0.127440
1.610751 0.936869 0.124835
0.775296 0.080980 0.043969
2.035264 0.224157 0.103852
1.829657 0.332559 0.157054
1.416848 0.840487 0.062574
1.913105 0.272919 0.173683
0.123183 0.026870 0.023291
2.014314 0.785718 0.158959
1.066033 0.248166 0.058851
0.680362 0.137565 0.025282
1.764658 0.650664 0.105645
2.002812 0.754347 0.144586
0.767010 0.041262 0.128462
1.735282 0.701829 0.073128
0.529129 0.535618 0.015104
0.513479 0.024910 0.098695
0.941557 0.313745 0.203473
1.407998 0.114442 0.052528
0.039756 0.707773 0.240483
0.454730 0.597897 0.014027
2.037639 0.183166 0.137945
0.773141 0.057726 0.168214
0.250128 0.969632 0.215405
1.919743 0.330007 0.097389
0.860972 0.662429 0.034344
1.857146 0.655800 0.132529
0.494155 0.930620 0.205935
0.501719 0.110319 0.021713
0.944934 0.744795 0.209440
1.495841 0.211453 0.063549
1.413193 0.188519 0.186479
2.017192 0.772864 0.111412
0.973854 0.501471 0.061973
0.989270 0.775294 0.042501
0.327947 0.979955 0.159669
0.710886 0.109026 0.214096
0.468947 0.208282 0.024618
1.054601 0.800100 0.201282
2.005690 0.712882 0.141472
0.568707 0.976265 0.142104
0.873993 0.961800 0.114720
1.676662 0.926264 0.137202
0.657452 0.403098 0.228643
1.236677 0.755808 0.097075
0.033050 0.995313 0.045887
0.170387 0.792677 0.005163
0.008188 0.622077 0.215421
1.949621 0.684076 0.139225
0.036241 0.621099 0.243693
1.953942 0.126882 0.114727
2.008474 0.747795 0.153841
2.001298 0.857592 0.150809
1.880521 0.118630 0.148476
0.395455 0.393826 0.013235
1.236174 0.248364 0.107754
1.736585 0.278711 0.073470
0.530981 0.782926 0.232075
1.778750 0.892840 0.090189
0.037255 0.189677 0.013865
2.015784 0.275097 0.093220
1.702248 0.264281 0.173408
2.033909 0.289244 0.112282
1.835253 0.318852 0.081117
1.662089 0.277001 0.072746
2.034917 0.195737 0.108191
1.572724 0.941941 0.104366
1.878909 0.755134 0.077916
1.689756 0.903346 0.082081
1.896698 0.860267 0.089977
0.891479 0.088202 0.038202
1.048398 0.953577 0.105051
1.103794 0.202433 0.200217
0.804754 0.162951 0.029307
1.548238 0.075375 0.069540
0.091120 0.965316 0.238851
1.873984 0.844264 0.076209
0.488321 0.746439 0.031675
0.895119 0.900745 0.211584
1.897590 0.272515 0.164361
2.040073 0.728954 0.132857
0.794894 0.473077 0.210961
0.572351 0.063978 0.033638
0.989624 0.783721 0.037892
1.675875 0.077404 0.148836
0.943470 0.132723 0.037643
1.186868 0.755034 0.109929
0.702309 0.485236 0.227424
0.999383 0.581957 0.170668
1.958826 0.147529 0.096690
1.175273 0.900292 0.208222
2.038118 0.748146 0.141266
0.940923 0.744518 0.214935
1.132055 0.147502 0.043099
1.932683 0.331775 0.102072
0.892207 0.961442 0.123785
0.526468 0.140773 0.028621
0.881451 0.943012 0.069489
1.552195 0.161751 0.059803
0.614592 0.487009 0.017560
0.886060 0.943241 0.079901
1.977350 0.130492 0.134857
1.417758 0.048269 0.152128
0.015409 0.508853 0.235112
1.114206 0.170620 0.042699
0.579236 0.308769 0.233385
1.346509 0.954840 0.117242
1.866020 0.687619 0.167793
1.160719 0.846267 0.043645
1.764634 0.790440 0.183834
0.894270 0.692729 0.036179
0.350508 0.981607 0.196029
0.039461 0.425555 0.017057
2.002534 0.716035 0.146029
0.028873 0.373572 0.238706
0.610957 0.060436 0.038329
2.028122 0.221336 0.119898
1.685884 0.266599 0.180021
0.013180 0.514773 0.242357
0.453455 0.435668 0.228701
0.438271 0.036375 0.043006
1.592307 0.072470 0.076937
0.010142 0.605790 0.000427
1.462171 0.056924 0.076507
0.895236 0.609320 0.043805
0.882987 0.700627 0.032311
0.007875 0.280555 0.235374
2.048770 0.749451 0.090866
1.735827 0.812220 0.189153
0.861215 0.563992 0.042028
1.588952 0.070762 0.168820
0.530491 0.965171 0.067938
0.024430 0.131858 0.024879
1.779430 0.316859 0.075427
0.018953 0.890552 0.250145
2.000588 0.799573 0.125313
1.198252 0.764473 0.066830
0.931897 0.641323 0.201814
1.932346 0.268604 0.173718
0.895872 0.083558 0.043282
0.030097 0.981688 0.214885
1.858963 0.339733 0.140471
0.610531 0.904819 0.226333
1.468413 0.765934 0.080050
0.166500 0.009360 0.206959
1.413052 0.954283 0.138265
1.083558 0.912618 0.205987
0.839150 0.915254 0.044361
2.025588 0.792722 0.125310
1.683412 0.069392 0.137686
0.496131 0.954102 0.201743
2.006244 0.790524 0.087015
0.353222 0.027345 0.041215
0.415865 0.020610 0.163856
0.999050 0.427977 0.078560
0.018356 0.746442 0.011042
1.860610 0.167310 0.078244
0.910323 0.191403 0.214522
0.986620 0.488386 0.062883
0.029984 0.533355 0.227522
1.926859 0.298294 0.166576
0.742231 0.873888 0.035854
2.054257 0.245705 0.112442
1.019883 0.448538 0.109365
1.431033 0.938652 0.182800
0.812345 0.114934 0.216524
1.329883 0.200108 0.188663
1.033436 0.959454 0.141464
1.668377 0.082798 0.102622
1.419348 0.065753 0.185745
0.429910 0.035371 0.212118
1.642767 0.081561 0.174110
1.361622 0.236127 0.145242
0.604652 0.958227 0.088056
2.020001 0.799353 0.160508
2.012249 0.715509 0.135389
0.462593 0.978396 0.093766
0.034259 -0.000089 0.183998
1.174888 0.937862 0.056910
0.385715 0.484668 0.009050
2.047931 0.313367 0.104281
1.396100 0.205482 0.189104
1.984734 0.129002 0.133815
0.802590 0.680418 0.028668
0.895367 0.089787 0.209950
0.077587 0.982959 0.022009
1.896102 0.277062 0.080516
0.758608 0.432694 0.219971
1.922786 0.727706 0.167011
0.015319 0.014189 0.082440
2.007751 0.161367 0.097244
0.125157 0.958443 0.017105
1.293478 0.950086 0.076153
0.786004 0.084845 0.206997
0.982252 0.750672 0.206372
1.879730 0.115933 0.149438
1.353254 0.810504 0.194544
2.049318 0.245117 0.121517
0.875258 0.418603 0.207846
1.381926 0.120359 0.050028
0.807350 0.051703 0.174493
0.235416 0.989521 0.170017
2.017891 0.273142 0.089601
0.620881 0.071803 0.033904
1.891170 0.345563 0.143090
1.766189 0.841249 0.175918
0.998654 0.515368 0.184174
2.040798 0.271093 0.087862
1.460573 0.873993 0.053407
0.453166 0.096427 0.018278
0.609948 0.908692 0.219794
1.958240 0.697054 0.089102
0.998752 0.273616 0.198192
1.037916 0.732085 0.056287
1.875441 0.273557 0.074694
0.817340 0.700567 0.224276
1.390632 0.055462 0.161981
2.039833 0.740614 0.110457
1.276273 0.233660 0.071342
0.510853 0.035635 0.193998
2.035768 0.751377 0.149175
2.021132 0.167951 0.105210
1.105193 0.254327 0.133831
0.567658 0.540523 0.015317
1.067986 0.206130 0.200444
1.925013 0.328647 0.094734
2.024310 0.858399 0.143123
0.692739 0.391552 0.024117
1.563650 0.052443 0.120522
1.238929 0.896833 0.044344
2.033033 0.715423 0.127692
1.744219 0.090613 0.090074
1.022229 0.322446 0.110621
1.320054 0.153826 0.048587
1.531571 0.123338 0.195985
1.136153 0.067578 0.202207
1.633446 0.935693 0.112255
0.172806 0.617573 0.003467
0.067873 0.686239 0.248595
1.361287 0.060530 0.182458
0.860979 0.224028 0.030473
1.491209 0.231992 0.076676
0.164089 0.638694 0.012258
0.963184 0.773753 0.043587
0.808904 0.280525 0.220610
2.019767 0.325567 0.131726
1.834004 0.110433 0.153614
0.900365 0.340559 0.210137
0.336791 0.024596 0.040461
1.078833 0.913589 0.044458
1.649429 0.729604 0.177900
0.040108 0.572511 0.014791
0.776678 0.526991 0.217700
0.723834 0.040699 0.160720
0.659931 0.075836 0.212674
2.024197 0.296343 0.159639
0.726500 0.703805 0.020597
1.719034 0.163205 0.182392
0.040727 0.849567 0.000755
0.748644 0.864306 0.221890
0.115069 0.953135 0.012562
0.116013 0.002886 0.208828
2.007821 0.839730 0.099613
1.015508 0.073919 0.200279
0.028241 0.374745 0.239015
0.787996 0.890149 0.035684
1.432174 0.808099 0.194582
1.040037 0.518377 0.126536
0.037223 0.941323 0.001952
1.131825 0.166386 0.206399
0.018989 0.387646 0.244587
1.810298 0.871382 0.078866
0.571166 0.948338 0.052533
2.005977 0.763890 0.090744
0.980927 0.496036 0.060921
0.563188 0.951659 0.052313
1.057131 0.252497 0.057885
1.041314 0.755395 0.203616
0.902435 0.943045 0.089834
0.900720 0.959134 0.108675
0.391171 0.977012 0.072334
0.404104 0.020249 0.057672
0.566320 0.036172 0.175181
1.439146 0.049287 0.159334
1.645520 0.133810 0.185010
1.048002 0.082656 0.200004
1.580064 0.878186 0.185915
2.009141 0.738372 0.125480
</DataArray>
</Points>
<PointData>
<DataArray NumberOfComponents='1' type='Int32' Name='ParticleType' format='ascii'>
1
1
1
1
1
1
1
1
1
1
1
1
1
1
1
1
1
1
1
1
1
1
1
1
1
1
1
1
1
1
1
1
1
1
1
1
1
1
1
1
1
1
1
1
1
1
1
1
1
1
1
1
1
1
1
1
1
1
1
1
1
1
1
1
1
1
1
1
1
1
1
1
1
1
1
1
1
1
1
1
1
1
1
1
1
1
1
1
1
1
1
1
1
1
1
1
1
1
1
1
1
1
1
1
1
1
1
1
1
1
1
1
1
1
1
1
1
1
1
1
1
1
1
1
1
1
1
1
1
1
1
1
1
1
1
1
1
1
1
1
1
1
1
1
1
1
1
1
1
1
1
1
1
1
1
1
1
1
1
1
1
1
1
1
1
1
1
1
1
1
1
1
1
1
1
1
1
1
1
1
1
1
1
1
1
1
1
1
1
1
1
1
1
1
1
1
1
1
1
1
1
1
1
1
1
1
1
1
1
1
1
1
1
1
1
1
1
1
1
1
1
1
1
1
1
1
1
1
1
1
1
1
1
1
1
1
1
1
1
1
1
1
1
1
1
1
1
1
1
1
1
1
1
1
1
1
1
1
1
1
1
1
1
1
1
1
1
1
1
1
1
1
1
1
1
1
1
1
1
1
1
1
1
1
1
1
1
1
1
1
1
1
1
1
1
1
1
1
1
1
1
1
1
1
1
1
1
1
1
1
1
1
1
1
1
1
1
1
1
1
1
1
1
1
1
1
1
1
1
1
1
1
1
1
1
1
1
1
1
1
1
1
1
1
1
1
1
1
1
1
1
1
1
1
1
1
1
1
1
1
1
1
1
1
1
1
1
1
1
1
1
1
1
1
1
1
1
1
1
1
1
1
1
1
1
1
1
1
1
1
1
1
1
1
1
1
1
1
1
1
1
1
1
1
1
1
1
1
1
1
1
1
1
1
1
1
1
1
1
1
1
1
1
1
1
1
1
1
1
1
1
1
1
1
1
1
1
1
1
1
1
1
1
1
1
1
1
1
1
1
1
1
1
1
1
1
1
1
1
1
1
1
1
1
1
1
1
1
1
1
1
1
1
1
1
1
1
1
1
1
1
1
1
1
1
1
1
1
1
1
1
1
1
1
1
1
1
1
1
1
</DataArray>
<DataArray NumberOfComponents='1' type='Int32' Name='ParticleID' format='ascii'>
0
1
2
3
4
5
6
7
8
9
10
11
12
13
14
15
16
17
18
19
20
21
22
23
24
25
26
27
28
29
30
31
32
33
34
35
36
37
38
39
40
41
42
43
44
45
46
47
48
49
50
51
52
53
54
55
56
57
58
59
60
61
62
63
64
65
66
67
68
69
70
71
72
73
74
75
76
77
78
79
80
81
82
83
84
85
86
87
88
89
90
91
92
93
94
95
96
97
98
99
100
101
102
103
104
105
106
107
108
109
110
111
112
113
114
115
116
117
118
119
120
121
122
123
124
125
126
127
128
129
130
131
132
133
134
135
136
137
138
139
140
141
142
143
144
145
146
147
148
149
150
151
152
153
154
155
156
157
158
159
160
161
162
163
164
165
166
167
168
169
170
171
172
173
174
175
176
177
178
179
180
181
182
183
184
185
186
187
188
189
190
191
192
193
194
195
196
197
198
199
200
201
202
203
204
205
206
207
208
209
210
211
212
213
214
215
216
217
218
219
220
221
222
223
224
225
226
227
228
229
230
231
232
233
234
235
236
237
238
239
240
241
242
243
244
245
246
247
248
249
250
251
252
253
254
255
256
257
258
259
260
261
262
263
264
265
266
267
268
269
270
271
272
273
274
275
276
277
278
279
280
281
282
283
284
285
286
287
288
289
290
291
292
293
294
295
296
297
298
299
300
301
302
303
304
305
306
307
308
309
310
311
312
313
314
315
316
317
318
319
320
321
322
323
324
325
326
327
328
329
330
331
332
333
334
335
336
337
338
339
340
341
342
343
344
345
346
347
348
349
350
351
352
353
354
355
356
357
358
359
360
361
362
363
364
365
366
367
368
369
370
371
372
373
374
375
376
377
378
379
380
381
382
383
384
385
386
387
388
389
390
391
392
393
394
395
396
397
398
399
400
401
402
403
404
405
406
407
408
409
410
411
412
413
414
415
416
417
418
419
420
421
422
423
424
425
426
427
428
429
430
431
432
433
434
435
436
437
438
439
440
441
442
443
444
445
446
447
448
449
450
451
452
453
454
455
456
457
458
459
460
461
462
463
464
465
466
467
468
469
470
471
472
473
474
475
476
477
478
479
480
481
482
483
484
485
486
487
488
489
490
491
492
493
494
495
496
497
498
499
</DataArray>
<DataArray NumberOfComponents='1' type='Int8' Name='IsActive' format='ascii'>
1
1
1
1
0
1
1
1
1
1
1
1
1
1
1
1
1
1
1
1
0
1
1
1
1
0
1
1
1
1
0
1
1
1
1
1
1
1
1
1
1
1
1
1
0
1
1
1
1
1
1
1
0
1
1
1
1
1
1
1
1
1
1
1
1
1
1
1
1
1
1
1
1
1
1
1
1
1
1
1
1
1
1
1
0
1
1
1
1
1
1
1
0
1
1
1
1
1
1
1
1
1
0
1
0
1
1
0
0
1
1
1
1
1
1
1
1
1
1
1
1
1
1
1
1
1
0
1
0
1
1
1
1
1
1
1
1
0
1
1
1
1
1
0
0
1
1
1
1
1
1
1
0
0
1
1
1
1
1
1
1
1
1
0
1
1
1
1
1
1
1
1
0
1
1
1
1
1
1
0
1
1
1
1
1
1
1
1
1
1
1
1
0
1
1
1
0
1
1
1
0
1
1
1
1
0
1
1
1
1
0
0
1
1
1
0
1
1
1
1
0
1
1
1
0
1
1
1
1
1
1
1
1
0
1
1
1
1
1
1
1
1
1
1
0
1
1
1
1
1
1
0
1
1
1
1
1
1
1
1
1
1
1
0
1
1
1
1
1
1
1
1
0
1
0
1
1
0
1
1
1
1
1
1
1
1
1
1
1
1
1
1
0
1
1
1
1
1
1
1
1
1
1
0
1
1
1
1
1
1
1
1
1
1
1
1
1
1
1
1
1
1
1
1
1
0
1
1
0
1
1
1
1
1
1
1
1
1
1
0
1
1
1
1
1
1
1
0
1
1
1
1
1
1
1
1
1
1
1
1
0
1
1
0
1
1
1
1
1
1
1
1
1
1
0
1
1
1
1
1
1
1
1
1
1
1
0
0
1
0
1
1
1
1
1
1
1
1
1
1
1
1
1
1
1
1
1
1
1
0
1
1
1
1
1
1
1
1
1
1
1
1
1
1
1
1
1
1
1
0
1
1
0
0
1
1
1
1
1
1
1
1
0
1
1
1
1
1
1
1
1
1
1
1
1
1
1
1
1
1
1
1
1
1
1
1
1
1
1
1
1
1
1
1
0
1
1
1
1
1
1
1
1
1
1
0
1
1
1
1
1
1
1
1
1
1
1
1
1
0
</DataArray>
<DataArray NumberOfComponents='1' type='Int32' Name='ParticleTetID' format='ascii'>
42485
-50400
79807
13184
-102510
60981
52918
4425
16655
71176
41738
105280
79931
80501
42551
51976
63422
73788
24554
23804
-12127
101388
76646
63562
23311
-102840
71394
51178
100560
44625
-34180
104421
48228
93500
76375
1866
64738
13059
8923
64063
83130
102110
64156
2467
-90119
83524
94294
-93119
39761
267
12992
80251
-25302
100560
105053
66813
70507
61672
72873
33410
97837
84037
25514
47060
90814
97058
77409
9312
29661
28026
33830
7012
25708
83185
80251
59354
21396
28278
-34180
44749
99295
53072
34794
13059
-102510
102111
97495
-50400
61315
52918
44700
23311
-104802
47198
64929
64197
99903
3290
13234
2176
43276
97770
-96019
41481
-86274
29957
36332
-98765
-86274
7911
23805
37766
98069
86168
32567
86355
687
69935
101245
45852
100821
6857
23285
51208
23065
88310
-98765
6940
-17626
57301
47260
100092
7701
67355
20266
83895
24718
-104802
51677
49989
30572
20014
37069
-12127
-70156
8604
15458
23218
40930
31239
40863
36828
-83215
-102510
12535
67185
17995
39005
99903
4195
3631
14533
48520
-17626
66066
8236
30315
47617
12026
83491
97137
37880
-102840
54357
63184
3631
101445
50747
15506
-102840
77514
54235
80931
60583
101509
41682
56131
97137
96848
54567
-96019
13953
-85990
49459
54109
52918
-83215
53426
-85990
6993
-102840
48467
66355
74275
96804
-83215
100903
84037
23805
37075
-34180
-104802
98209
9312
66253
-69112
14708
26601
75438
80504
-70156
27076
97756
48720
-102840
8416
16387
57714
96187
84520
61049
69970
97166
-99021
60897
91618
87773
42160
1330
88248
83641
59821
42500
12581
-102510
75176
51003
57237
36906
45566
5728
-34180
6641
55298
8600
78800
13794
99980
48001
100807
46978
100807
10636
-93119
-98210
44865
11853
30222
3571
37934
15911
85474
-94130
61787
-25302
66157
84574
-99021
68629
48467
80254
83185
59357
104135
56122
29890
63248
101369
23605
17754
5816
75438
-34180
8396
66315
51003
39297
23094
101958
104730
92667
16119
57744
-102840
59821
10871
87773
83621
30603
49192
31339
780
55298
42295
95806
100092
37069
19069
95236
73860
44351
65167
55146
49067
74099
-34180
101063
59534
-83215
61787
100092
34232
43602
36960
101354
73627
49500
55146
98826
-98411
8236
5801
32363
32560
94294
20546
-71594
-17626
102461
43587
28968
72305
17189
19939
16041
8257
12149
69840
15235
42234
-17626
16598
21054
-83820
18335
58338
3379
100743
104590
79441
64003
77116
28968
54235
-83215
53997
31795
100197
45399
39761
18255
85009
43298
32341
66610
4183
-70156
-34180
81845
-101044
63303
72441
-94130
15358
42295
54805
72879
99809
32347
91623
66117
101509
-24687
96089
16787
47347
12400
44865
36636
-83215
81850
43948
103848
95343
-94130
81836
103342
12797
66046
-94130
97443
61597
16041
75609
24043
102031
10884
69407
105960
-102840
34802
83547
-102840
-24687
19358
103232
50576
87773
-98210
93247
81958
84397
-34180
23805
9451
65611
82550
76420
19618
67328
56084
927
23628
8171
67328
14751
95601
-50400
67123
46639
17383
11504
41428
88021
90301
70707
62274
-95447
92960
5566
100560
82057
96089
87735
-96019
75995
101063
92212
75
19864
95063
16416
101063
15911
3219
-98411
45075
3219
18336
21876
85598
85598
51677
71977
105750
79236
46182
41208
25414
-102840
</DataArray>
<DataArray NumberOfComponents='3' type='Float32' Name='vels' format='ascii'>
9.139420 3.239096 -0.020618
22.746117 0.571945 -0.290697
2.414369 -0.002473 0.010215
27.753026 -5.253723 -0.013478
23.484112 -0.510887 0.083072
0.748511 0.024566 0.005142
21.078013 2.954912 0.022158
16.894296 2.357216 0.046253
7.211399 2.276583 -0.011085
6.578269 0.882563 0.010962
11.422006 -2.008631 0.006152
1.664552 -0.009715 -0.016221
10.231840 1.211306 -0.009428
4.441024 -0.113822 0.000492
11.298657 3.123943 0.002292
20.201442 -1.791450 -0.015428
28.289458 -11.522595 0.030907
17.417423 0.899526 0.055077
9.797835 0.276963 -0.000664
19.311125 1.548410 -0.017505
21.835456 0.067503 1.640637
-0.070597 0.038435 -0.002939
19.453311 -1.746732 0.126631
1.895360 0.004559 0.010423
19.596844 -1.765696 -0.019236
22.591256 -0.226395 0.244628
3.135427 0.199978 -0.201140
21.515186 0.895631 -0.287062
0.135259 0.029661 -0.014942
7.665197 0.151652 0.007468
22.058982 -0.221339 0.905368
2.923262 -0.038238 -0.000514
0.958565 -0.002438 -0.023207
32.073922 -9.096459 -0.003539
10.733264 0.387029 0.002429
17.710681 11.516253 0.126731
20.148735 1.295050 0.119767
20.243398 0.696702 0.045165
6.403062 5.108138 -0.021404
28.213457 -1.941523 -0.031126
5.207844 -0.167725 0.006450
3.595970 -0.079057 -0.000533
2.264504 -0.018870 -0.000310
3.966284 -0.015683 -0.012420
23.253517 -0.506630 -0.243077
0.053985 0.009087 -0.004388
0.000104 0.020260 -0.001711
21.234953 -0.478901 -0.021576
11.279804 0.314513 -0.010361
31.103844 2.857930 -0.005466
20.115271 -2.409587 -0.031485
-0.005199 -0.028753 0.007253
23.583462 0.705706 0.031841
0.074028 0.046064 -0.013753
12.774434 -0.582373 0.004270
11.150098 -5.742002 -0.002218
6.009961 0.168569 -0.001173
4.360207 -2.262344 -0.006461
26.235828 -2.469779 -0.027548
10.275873 -0.145210 0.003929
9.242531 -1.446482 0.001442
21.230894 -2.464227 -0.026484
1.317399 -0.002043 0.012698
31.336223 1.444334 0.085517
26.150270 4.101756 -0.000465
1.375417 0.000952 -0.000545
10.050818 -1.499993 -0.012763
6.198286 -0.172549 -0.032871
18.288605 -2.050416 -0.008756
10.946438 0.375827 -0.068136
20.878834 0.524428 -0.157336
13.032261 -1.459600 -0.015683
8.163448 0.176262 -0.064000
19.755064 -1.244526 0.086448
0.111067 0.008846 -0.000516
8.137986 1.198001 -0.000422
32.857869 -3.716064 0.005769
20.384667 -5.648722 0.003905
22.453575 -0.519201 0.546982
21.073389 -2.918857 -0.031012
-0.040266 -0.013280 -0.004688
21.820062 -1.336284 -0.149510
22.695040 0.410522 0.054990
20.261107 0.721982 0.058782
21.544261 -0.576351 -0.237666
3.916648 -0.076917 -0.000329
7.120756 0.036683 -0.003480
22.850020 0.504740 0.291769
28.391879 1.779794 0.008217
20.796770 2.176288 0.063249
6.796744 0.640905 0.003682
18.914370 -1.444864 -0.024227
22.928140 -0.721532 0.020940
17.257226 -5.012232 -0.004864
21.421717 0.875313 0.266775
0.717963 -0.006659 -0.002312
0.279327 0.047922 -0.000681
26.302689 -4.823267 -0.012789
23.865389 0.818291 -0.030346
13.887218 -1.297488 0.018054
30.021123 -0.396417 0.014571
0.074624 0.011585 -0.009168
16.604183 0.954922 -1.554912
18.972202 4.645971 0.018008
22.200797 0.725471 -0.532589
19.536433 -3.725911 -0.034048
21.521004 2.535274 0.055190
23.505890 -0.017541 0.011079
21.587448 0.974728 -0.641169
13.416339 -0.528877 -0.086458
17.939272 1.423992 -0.012937
28.520244 -5.100606 0.021520
4.907595 0.015419 -0.012245
19.540200 4.008239 -0.000306
11.698295 3.772330 -0.001253
26.156321 3.345496 0.010185
20.622038 -3.137647 0.038529
22.890933 -2.540494 0.008593
0.051860 0.006714 -0.019758
2.805619 0.074348 -0.277046
0.354475 0.008826 0.007137
10.987818 -3.212378 -0.001706
14.254299 0.574739 0.014023
19.245692 0.264695 -0.016153
26.183690 0.295029 -0.002155
7.790492 0.326941 -0.021360
23.130137 -0.019389 0.136113
33.965656 -1.344039 0.033036
21.975496 -0.398811 0.347033
12.514104 -1.202212 -0.039245
8.098680 -0.682896 -0.006331
-0.100012 0.022679 -0.005244
19.052875 -1.399970 -0.017700
20.660634 -0.081416 0.018465
17.619883 7.626098 0.012760
31.623884 -0.262576 -0.018558
14.201843 -10.021810 0.194801
23.078656 -0.988561 -0.027553
13.203958 0.061351 -0.018130
5.225450 -0.020083 0.000096
21.981497 -2.157944 0.014356
32.648251 -0.359688 0.030782
24.597624 -6.108604 -0.015533
23.086697 0.462772 0.127130
20.097993 -0.001831 0.998274
6.702167 0.037962 -0.022378
4.173469 0.013894 0.024911
20.162804 -2.916378 -0.031010
29.156548 -2.252186 -0.001656
19.931130 -7.681924 -0.030923
6.683426 0.168258 -0.026302
16.667971 2.446029 0.005989
23.785807 0.531745 -0.031865
21.848852 0.420922 0.793156
9.368890 0.243539 -0.036667
8.609362 0.150224 0.033643
8.265530 -0.037174 0.017149
9.176630 -2.729282 -0.005270
0.053356 -0.013475 0.018481
9.652574 1.422080 -0.004456
7.227533 -2.393663 -0.015666
13.971414 0.610192 0.026989
20.857451 -0.688401 0.258959
23.074533 -0.332614 -0.039117
7.962456 -0.599884 -0.005750
11.809602 -3.242381 -0.028085
23.607008 -4.259116 -0.046225
19.495250 -8.845017 -0.010483
10.106381 -0.252376 0.001104
6.919202 -0.032727 -0.011645
-0.051937 -0.003397 0.005731
26.209790 4.033872 0.023356
23.744358 -0.623742 0.078356
11.476620 4.225823 -0.011308
19.317714 8.280096 -0.002722
23.391220 -9.540857 -0.012761
0.347288 -0.006143 0.004280
19.096132 -8.248980 -0.007292
31.502316 -9.423632 -0.005857
22.731125 -0.410106 -0.267865
23.081281 -1.781675 0.059964
12.934056 1.351072 0.014594
14.596050 -7.390679 0.010366
12.099267 0.491683 0.129515
-0.103478 -0.001070 0.014009
26.066819 -1.994906 0.095502
24.782858 0.919320 0.033004
0.048763 -0.000683 -0.007676
23.050951 0.897803 0.032709
4.073687 0.128417 -0.000246
16.990761 0.499263 -0.526326
22.233425 9.089682 0.009273
22.424382 0.267650 -0.125181
19.676163 -3.782804 0.013001
0.847581 0.006721 0.003368
19.778341 3.100933 0.015270
23.805036 0.246133 -0.090822
9.772763 -0.127892 0.014060
17.974424 -0.188307 1.097113
14.523370 -2.358899 -0.026766
22.916248 -0.253452 -0.514480
18.443958 -0.900011 0.199628
14.273104 0.273540 -0.017823
31.683309 5.314617 0.018568
6.032344 -0.032926 -0.021722
23.480659 0.156312 -0.174877
-0.135679 0.027819 -0.001709
21.110555 -2.644449 -0.012252
20.530786 2.109433 0.012340
2.953397 -0.004878 0.000137
23.583081 -0.560089 0.024302
23.161558 -0.767744 -0.045548
21.333518 -0.444637 -0.177459
10.569192 -0.400334 0.002793
11.623859 -0.824181 -0.014595
21.410000 0.626257 0.310330
20.664465 3.799443 -0.012304
36.797407 0.503084 -0.056004
21.442867 2.498841 -0.038417
3.394059 -0.008053 0.012057
17.750980 -0.020871 0.508239
15.399073 -10.252455 -0.304736
7.374567 -0.584602 -0.009089
20.064773 -6.266737 0.004975
23.602854 -0.615112 0.038929
10.848234 -0.364648 -0.014663
19.069146 -6.872626 -0.020025
5.097935 -0.005332 -0.000015
5.698851 -0.034291 -0.008628
10.051956 -10.222308 0.125692
31.064625 0.128516 -0.000008
0.031515 -0.031385 0.008500
4.884886 0.096867 0.000539
21.328316 0.562810 0.238438
6.531565 -0.158423 0.059073
3.615515 0.000578 0.013373
22.117046 1.571356 0.069366
8.482416 4.397971 0.004829
20.450857 -1.903346 -0.065008
8.603813 0.091618 -0.008726
5.839162 -0.098307 -0.000988
13.055472 8.444256 0.022893
36.959641 5.696986 0.014941
34.569673 -1.125583 0.102632
23.606339 -0.372745 -0.031862
3.041850 0.280828 -0.131730
16.135529 8.711907 -0.039333
0.191294 -0.017615 0.007814
10.383271 -0.716701 -0.016216
13.671600 -0.331274 -0.007585
22.650562 10.390250 0.067455
21.838368 -0.661170 -0.191753
5.952524 0.029670 0.013106
13.773383 0.769707 -0.022627
23.432314 -2.615303 -0.018247
6.521938 -0.702782 0.005149
31.867217 -2.995539 0.206514
-0.038937 0.000566 0.031278
1.869565 0.011209 0.000296
-0.131326 0.038945 -0.009033
22.677236 -1.666287 -0.045398
0.126306 -0.036517 0.022473
20.573028 0.689383 0.187258
22.750940 -0.531753 0.033055
20.545453 -0.083357 -0.102342
19.424969 1.196397 -0.015091
4.707187 -0.063748 0.000247
28.953882 3.704198 0.153646
20.102882 4.837493 0.007184
6.090857 0.301152 -0.001213
19.314386 -1.759508 0.008919
-0.005140 0.000208 -0.006296
22.049778 0.519534 -0.195881
22.084988 8.628221 0.009447
23.087101 0.531150 0.110178
19.679872 3.351304 0.008633
21.684253 10.555651 0.020893
22.952633 -0.348073 -0.012363
24.933822 -1.942984 0.082288
20.356275 -2.447192 0.041775
6.078197 -0.750208 -0.021155
22.022030 -1.845929 0.051155
18.452921 -2.050975 -0.008963
3.842504 0.033727 0.019765
24.535461 -9.426849 0.138316
10.928379 -2.006867 -0.015154
27.738278 2.136597 0.062930
0.278476 0.000907 0.003217
20.786227 -3.181245 0.019007
13.972787 0.442565 0.001790
15.818420 2.057112 0.048610
19.766501 2.074381 -0.096170
21.937366 -0.464106 0.805875
8.689686 -0.640814 -0.001376
11.695749 -0.188744 0.002013
15.916718 8.673774 -0.033255
21.464977 2.130379 0.003540
9.215567 -2.030870 0.000659
28.229246 1.035432 0.063340
1.205490 -0.023490 -0.000375
0.783672 2.044793 0.301757
17.269437 0.588661 0.189326
25.022265 0.941585 0.043672
23.147157 -0.174652 0.127549
11.743188 7.555192 0.019419