<VTKFile type='UnstructuredGrid' version='1.0' byte_order='LittleEndian' header_type='UInt64'>
<UnstructuredGrid>
<Piece NumberOfCells='500' NumberOfPoints='500'>
<Points>
<DataArray NumberOfComponents='3' type='Float32' Name='Position' format='ascii'>
1.592166 0.744168 0.227783
2.041913 0.322548 0.117272
0.348068 0.977950 0.221558
2.032789 0.817449 0.183718
2.006422 0.772777 0.106364
0.202367 0.192354 0.246302
2.021840 0.236634 0.075397
2.017995 0.818960 0.207017
1.623637 0.731668 0.225413
1.618116 0.832508 0.227308
1.871467 0.216663 0.035876
0.318849 0.006081 0.058180
1.446736 0.767294 0.222166
0.810992 0.206996 0.237293
1.927299 0.733592 0.214958
2.029884 0.896507 0.149988
2.019396 0.268186 0.204956
2.024177 0.929727 0.162309
1.498424 0.881923 0.218877
2.028493 0.103892 0.112536
2.053310 0.240382 0.149626
0.341326 0.106328 0.229314
2.013011 0.752185 0.079681
0.391633 0.991228 0.149534
2.010016 0.889759 0.129730
2.047684 0.745451 0.119795
1.312497 0.493792 0.094814
2.034071 0.303870 0.160488
0.044225 0.852591 0.002624
1.109407 0.960252 0.222358
2.049422 0.718082 0.151819
0.630770 0.299468 0.242715
1.220998 0.979759 0.187649
2.022542 0.715620 0.181877
1.766243 0.965322 0.129680
2.010632 0.639137 0.200410
2.032977 0.238094 0.074622
2.000648 0.118576 0.122908
2.023587 0.621514 0.041745
2.021349 0.083507 0.064647
1.434114 0.050398 0.217462
0.722849 0.263784 0.238628
0.472156 0.289674 0.007488
0.735112 0.034616 0.032641
2.007880 0.710244 0.115067
0.280766 0.526498 0.007780
0.028783 0.128466 0.020217
2.001995 0.747523 0.166309
2.009973 0.935019 0.106858
2.032963 0.684623 0.203324
2.034140 0.855777 0.176953
0.022034 0.668078 0.223713
2.008327 0.295468 0.130869
0.044102 0.851843 0.002338
0.953486 0.398865 0.226469
2.014178 0.336587 0.209485
1.077906 0.916899 0.230685
1.730338 0.376598 0.037887
2.020040 0.916381 0.117455
1.556201 0.031215 0.167853
1.765639 0.212319 0.027183
2.033928 0.852710 0.179680
0.265202 0.991806 0.194926
2.009942 0.676050 0.191148
2.019976 0.708230 0.042371
0.233378 0.723338 0.001776
1.658718 0.285116 0.029845
2.031539 0.915199 0.125560
1.887155 0.097703 0.203147
2.018562 0.097872 0.154440
2.032726 0.151930 0.157049
1.158444 0.230769 0.023484
1.606498 0.976133 0.115742
2.012379 0.857800 0.088540
0.040698 0.653290 0.242570
1.544474 0.747310 0.027458
2.006516 0.709664 0.056035
2.006612 0.733044 0.069206
2.032027 0.708061 0.156368
2.047422 0.659033 0.158041
0.628449 0.196555 0.213441
2.008623 0.671327 0.150335
1.986859 0.928333 0.069949
2.000212 0.119345 0.120454
2.027649 0.788814 0.122788
0.728811 0.229712 0.240114
1.077679 0.983123 0.187870
2.037782 0.301018 0.135393
2.000514 0.077327 0.105807
2.037639 0.231862 0.074891
1.138252 0.796484 0.019761
2.043692 0.901627 0.126913
2.041219 0.688146 0.137356
2.000429 0.215780 0.041495
2.033186 0.327317 0.104475
0.192364 0.612383 0.250010
0.034272 0.561756 0.249065
2.044269 0.818918 0.199550
2.001223 0.848056 0.050231
2.017651 0.129320 0.202862
2.012521 0.233298 0.045845
0.303487 0.980224 0.172600
2.030091 0.839346 0.098504
2.033268 0.354557 0.077770
2.041484 0.819601 0.133527
2.016896 0.735843 0.177114
2.005133 0.350592 0.093012
2.030378 0.211665 0.125291
2.051344 0.818365 0.128576
1.920621 0.043960 0.114937
2.015030 0.096685 0.090606
2.042048 0.398850 0.188016
0.451817 0.910026 0.241359
2.022922 0.372593 0.103430
1.963764 0.731616 0.214062
2.016049 0.756633 0.040487
2.020701 0.649097 0.095229
2.010562 0.904400 0.171377
0.048239 0.992681 0.222150
1.302368 0.498191 0.071517
0.087955 0.042993 0.006051
1.757095 0.251229 0.212680
2.032231 0.932595 0.160442
2.006229 0.058657 0.123712
2.029796 0.721484 0.189331
1.451909 0.935113 0.026516
2.022575 0.188149 0.135854
2.017201 0.681083 0.191017
2.023163 0.803616 0.100864
1.935881 0.109986 0.040087
1.671378 0.124094 0.222923
0.008612 0.505312 0.222118
2.015481 0.887887 0.167531
2.012309 0.059204 0.149143
2.024290 0.352007 0.073397
2.044852 0.258797 0.047845
2.004841 0.367351 0.200467
2.018896 0.681016 0.127061
0.712372 0.985637 0.101344
0.882627 0.479130 0.233843
2.018782 0.639498 0.119193
2.033252 0.732225 0.044826
2.006809 0.305431 0.041686
2.020581 0.271387 0.143559
2.029636 0.772421 0.161292
0.943356 0.981372 0.191618
0.778444 0.013692 0.100812
2.030579 0.775512 0.178289
2.041007 0.276005 0.046258
2.000271 0.289912 0.039032
2.030297 0.105648 0.171593
2.008805 0.883220 0.211431
2.007401 0.237211 0.132114
2.043957 0.792899 0.145899
1.553438 0.975265 0.087351
1.453097 0.974729 0.174520
1.088986 0.022932 0.162943
1.746743 0.345332 0.033589
0.036788 0.566939 0.249568
1.291165 0.778600 0.226244
2.031014 0.717976 0.184907
1.644404 0.962529 0.176355
2.015580 0.844944 0.092940
2.035106 0.799893 0.114166
1.626466 0.101188 0.224616
2.022126 0.726487 0.178634
2.027879 0.840318 0.184213
2.017479 0.630500 0.093234
1.646774 0.035356 0.167675
0.643345 0.030399 0.167682
0.038011 0.987347 0.128617
2.017105 0.149523 0.065801
2.002765 0.755692 0.135449
1.868882 0.730047 0.216542
2.024452 0.367358 0.155246
2.029788 0.686933 0.179488
0.060839 0.986649 0.007680
2.043170 0.614473 0.123196
2.022747 0.721939 0.186483
2.054804 0.758295 0.109029
2.041637 0.681193 0.088195
1.849815 0.878883 0.041313
2.000926 0.300494 0.207650
1.834069 0.948069 0.174267
0.279173 0.023854 0.080877
2.026112 0.916278 0.087320
2.030630 0.922772 0.068881
0.038762 0.989279 0.137480
2.043955 0.337547 0.127159
0.879291 0.837373 0.237757
2.014167 0.830135 0.092786
2.021179 0.297030 0.060840
2.006074 0.222603 0.150129
2.012553 0.718654 0.076826
0.170256 0.880009 0.246162
2.014067 0.221852 0.075742
2.022074 0.220839 0.125137
1.387822 0.025686 0.157917
2.024098 0.190148 0.166427
1.879961 0.115527 0.036912
2.031926 0.750208 0.100893
2.032816 0.780082 0.070591
0.795704 0.916766 0.019105
2.036882 0.229357 0.050515
0.945031 0.018341 0.192503
2.032852 0.230892 0.118425
0.162798 0.165439 0.227781
2.019598 0.843053 0.176573
2.016902 0.101517 0.145640
0.694642 0.469974 0.241953
2.045287 0.712677 0.129932
2.035427 0.694947 0.126864
2.048916 0.864810 0.125488
2.001647 0.913888 0.124021
1.817849 0.088249 0.042069
2.035264 0.224157 0.103852
2.025508 0.345656 0.154944
2.035546 0.726023 0.059531
2.008734 0.276993 0.174787
0.170479 0.028005 0.024299
2.014314 0.785718 0.158959
2.022817 0.412694 0.057546
1.631775 0.100522 0.025267
2.027677 0.625261 0.106097
2.002812 0.754347 0.144586
1.766443 0.039715 0.127984
2.012800 0.666294 0.074063
0.872570 0.567306 0.014811
1.098782 0.010618 0.097065
2.001944 0.360681 0.203661
2.009621 0.190728 0.054982
0.040974 0.705132 0.241178
0.861729 0.664369 0.014830
2.037639 0.183166 0.137945
1.833552 0.051657 0.168474
0.533444 0.971033 0.215464
2.030415 0.333994 0.097299
1.878439 0.643954 0.034971
2.021489 0.647323 0.134533
1.297654 0.957837 0.208512
1.114603 0.067208 0.019803
2.012652 0.670691 0.207114
2.017824 0.348008 0.065318
2.038313 0.328636 0.190803
2.017192 0.772864 0.111412
1.241807 0.502386 0.056173
2.022265 0.669826 0.040038
0.639804 0.983147 0.159750
1.643913 0.085395 0.212728
1.316149 0.112853 0.024330
2.022459 0.678012 0.204441
2.005690 0.712882 0.141472
1.095320 0.993390 0.143809
1.864745 0.955486 0.116258
2.019636 0.910267 0.135929
1.312046 0.207092 0.228851
2.006319 0.572720 0.097924
0.034291 0.995941 0.048846
0.357118 0.796043 0.005234
0.403354 0.624294 0.211825
2.007652 0.682386 0.138880
0.386469 0.620439 0.238787
2.005989 0.126293 0.114610
2.008474 0.747795 0.153841
2.001298 0.857592 0.150809
2.025124 0.119820 0.148109
0.707890 0.375411 0.013034
2.039586 0.412706 0.106171
2.024485 0.316321 0.073033
1.009468 0.868738 0.233482
2.013345 0.882962 0.090390
0.036437 0.188770 0.014170
2.015784 0.275097 0.093220
2.010821 0.308547 0.173000
2.033909 0.289244 0.112282
2.042875 0.331086 0.077792
2.039336 0.339690 0.068817
2.034917 0.195737 0.108191
2.013953 0.922460 0.103780
2.027577 0.749487 0.077519
2.000638 0.887062 0.082849
2.043238 0.860607 0.086299
1.926443 0.110413 0.039393
2.012521 0.933139 0.107317
2.021264 0.348509 0.201991
1.818750 0.167820 0.029900
2.036560 0.107947 0.066608
0.096968 0.963845 0.239524
2.018576 0.840891 0.076544
1.530539 0.847122 0.030855
1.921920 0.878785 0.211878
2.003428 0.277166 0.164066
2.040073 0.728954 0.132857
1.015653 0.305541 0.217871
1.259604 0.042539 0.034330
2.013732 0.699957 0.037390
2.038919 0.091718 0.151174
2.007386 0.174686 0.037130
2.010286 0.565693 0.109033
0.939095 0.438536 0.227589
1.369131 0.741522 0.183933
2.010992 0.147421 0.096275
2.023444 0.832276 0.209149
2.038118 0.748146 0.141266
2.007447 0.660923 0.215475
2.007343 0.252245 0.045028
2.038461 0.336184 0.102265
1.957977 0.950453 0.124260
1.396967 0.077698 0.028583
1.855082 0.935613 0.070521
2.036578 0.240857 0.056613
0.921520 0.453898 0.016788
2.019009 0.931509 0.079621
2.026656 0.128085 0.135971
2.011742 0.078111 0.152927
0.013317 0.509851 0.234018
2.005825 0.296214 0.042500
1.275174 0.162166 0.233643
2.020640 0.930446 0.117839
2.012230 0.680055 0.167305
2.024435 0.735181 0.039485
2.025570 0.769084 0.186028
1.940104 0.645267 0.036030
0.616101 0.984189 0.197552
0.039444 0.426221 0.016426
2.002534 0.716035 0.146029
0.030340 0.373419 0.240606
1.406925 0.038967 0.037419
2.028122 0.221336 0.119898
2.000288 0.313538 0.179206
0.013266 0.514053 0.241862
0.884453 0.363099 0.229638
0.893196 0.026030 0.042612
2.023364 0.091646 0.073414
0.007811 0.605221 -0.000325
2.022095 0.088833 0.073625
1.881386 0.613158 0.042537
1.930000 0.666861 0.033060
0.010996 0.278958 0.236242
2.048770 0.749451 0.090866
2.029164 0.787634 0.187305
1.639262 0.639049 0.038930
2.001214 0.102727 0.166548
1.178531 0.980841 0.065917
0.503020 0.131117 0.026076
2.016937 0.339622 0.074967
0.018953 0.890552 0.250145
2.000588 0.799573 0.125313
2.018788 0.585346 0.066433
1.971686 0.603161 0.201427
2.028930 0.271324 0.174884
2.010875 0.104483 0.044686
0.228850 0.981781 0.217063
2.026492 0.348990 0.140628
1.387788 0.945277 0.227059
2.033815 0.595950 0.076129
0.229889 0.010164 0.208154
2.031101 0.930411 0.137363
2.004660 0.865858 0.205160
1.882222 0.902518 0.043508
2.025588 0.792722 0.125310
2.036936 0.079405 0.138733
1.099772 0.973282 0.205156
2.006244 0.790524 0.087015
0.678975 0.025637 0.040438
0.575268 0.020590 0.164153
1.222108 0.284840 0.066959
0.017718 0.747322 0.010650
2.007610 0.172173 0.078813
2.007702 0.234239 0.216311
1.249692 0.490558 0.057428
0.464103 0.532800 0.228976
2.020352 0.301361 0.168629
1.821844 0.882598 0.035530
2.054257 0.245705 0.112442
1.093219 0.481082 0.105950
2.005327 0.901170 0.181384
1.797927 0.121532 0.215829
2.014286 0.350295 0.187820
2.016464 0.939830 0.139259
2.040402 0.096788 0.101012
2.001294 0.107314 0.184666
0.768554 0.030081 0.213909
2.038295 0.102904 0.177095
2.025195 0.408903 0.144709
1.423057 0.976209 0.087192
2.020001 0.799353 0.160508
2.012249 0.715509 0.135389
0.898453 0.990800 0.091428
0.034259 -0.000089 0.183998
2.032238 0.901429 0.052711
0.623273 0.481690 0.007789
2.047931 0.313367 0.104281
2.023425 0.371297 0.189176
2.033696 0.125638 0.135117
1.745524 0.700832 0.028854
1.913909 0.112112 0.210507
0.144123 0.986046 0.021278
2.001362 0.282336 0.081177
1.423338 0.219131 0.220921
2.016776 0.724579 0.168284
0.013799 0.012339 0.084119
2.007751 0.161367 0.097244
0.314465 0.958911 0.016205
2.021828 0.925834 0.076102
1.634309 0.072115 0.208311
2.012108 0.659642 0.207532
2.023007 0.116935 0.149028
2.001221 0.669073 0.192203
2.049318 0.245117 0.121517
1.741022 0.380924 0.210128
2.014259 0.206345 0.053412
1.856085 0.059024 0.173514
0.400974 0.989510 0.169072
2.017891 0.273142 0.089601
1.389828 0.045271 0.032434
2.001818 0.350240 0.144337
2.018226 0.826991 0.177203
1.262600 0.508654 0.189626
2.040798 0.271093 0.087862
2.039047 0.789668 0.048091
0.862035 0.076204 0.019035
1.410974 0.942662 0.220344
2.010548 0.695931 0.089083
2.015575 0.353923 0.199898
2.014640 0.582777 0.057398
2.024173 0.282589 0.075697
1.763522 0.720888 0.226039
2.025903 0.091580 0.162508
2.039833 0.740614 0.110457
2.045441 0.386358 0.068500
1.008093 0.022458 0.194458
2.035768 0.751377 0.149175
2.021132 0.167951 0.105210
2.030107 0.426089 0.134212
0.901059 0.596333 0.016264
2.017631 0.345764 0.201357
2.033975 0.332578 0.095046
2.024310 0.858399 0.143123
1.387586 0.196492 0.025397
2.036353 0.070023 0.119429
2.006043 0.826376 0.044697
2.033033 0.715423 0.127692
2.040083 0.091923 0.085418
2.023243 0.436303 0.110260
2.038732 0.267869 0.046259
2.022422 0.186151 0.198259
2.029531 0.103716 0.205389
2.015052 0.920555 0.112129
0.328336 0.617344 0.003000
0.161614 0.684628 0.247483
2.017961 0.096528 0.184175
1.954319 0.261523 0.031851
2.024277 0.380779 0.080066
0.487183 0.642330 0.012503
2.000152 0.715168 0.043558
1.788019 0.276285 0.220700
2.019767 0.325567 0.131726
2.010451 0.114133 0.153634
1.973209 0.371024 0.210490
0.624176 0.023882 0.039456
2.018938 0.868010 0.039757
2.008738 0.657800 0.178482
0.041634 0.572693 0.013684
1.021367 0.704930 0.223398
1.637970 0.032090 0.162646
1.473257 0.048890 0.214569
2.024197 0.296343 0.159639
1.575258 0.793130 0.022244
2.003979 0.189402 0.181230
0.047646 0.852974 -0.000133
1.710773 0.877808 0.221688
0.304218 0.953668 0.011521
0.149620 0.003811 0.207896
2.007821 0.839730 0.099613
2.028238 0.101937 0.203735
0.027549 0.374875 0.238533
1.812144 0.892942 0.035914
2.033046 0.667468 0.200239
1.305811 0.512100 0.126841
0.058790 0.939735 0.002470
2.017117 0.290534 0.208101
0.018482 0.388260 0.245296
2.042207 0.866436 0.076275
1.390711 0.970143 0.050853
2.005977 0.763890 0.090744
1.246048 0.495881 0.056406
1.323184 0.973210 0.051032
2.019777 0.409893 0.057595
2.007231 0.605300 0.202884
2.003610 0.932416 0.091151
1.986313 0.945819 0.110233
0.800124 0.979493 0.071982
0.727923 0.016194 0.056917
1.187282 0.019504 0.177562
2.019279 0.075744 0.157400
2.007864 0.166258 0.184835
2.007855 0.119610 0.200900
2.033492 0.829768 0.188287
2.009141 0.738372 0.125480
</DataArray>
</Points>
<PointData>
<DataArray NumberOfComponents='1' type='Int32' Name='ParticleType' format='ascii'>
1
1
1
1
1
1
1
1
1
1
1
1
1
1
1
1
1
1
1
1
1
1
1
1
1
1
1
1
1
1
1
1
1
1
1
1
1
1
1
1
1
1
1
1
1
1
1
1
1
1
1
1
1
1
1
1
1
1
1
1
1
1
1
1
1
1
1
1
1
1
1
1
1
1
1
1
1
1
1
1
1
1
1
1
1
1
1
1
1
1
1
1
1
1
1
1
1
1
1
1
1
1
1
1
1
1
1
1
1
1
1
1
1
1
1
1
1
1
1
1
1
1
1
1
1
1
1
1
1
1
1
1
1
1
1
1
1
1
1
1
1
1
1
1
1
1
1
1
1
1
1
1
1
1
1
1
1
1
1
1
1
1
1
1
1
1
1
1
1
1
1
1
1
1
1
1
1
1
1
1
1
1
1
1
1
1
1
1
1
1
1
1
1
1
1
1
1
1
1
1
1
1
1
1
1
1
1
1
1
1
1
1
1
1
1
1
1
1
1
1
1
1
1
1
1
1
1
1
1
1
1
1
1
1
1
1
1
1
1
1
1
1
1
1
1
1
1
1
1
1
1
1
1
1
1
1
1
1
1
1
1
1
1
1
1
1
1
1
1
1
1
1
1
1
1
1
1
1
1
1
1
1
1
1
1
1
1
1
1
1
1
1
1
1
1
1
1
1
1
1
1
1
1
1
1
1
1
1
1
1
1
1
1
1
1
1
1
1
1
1
1
1
1
1
1
1
1
1
1
1
1
1
1
1
1
1
1
1
1
1
1
1
1
1
1
1
1
1
1
1
1
1
1
1
1
1
1
1
1
1
1
1
1
1
1
1
1
1
1
1
1
1
1
1
1
1
1
1
1
1
1
1
1
1
1
1
1
1
1
1
1
1
1
1
1
1
1
1
1
1
1
1
1
1
1
1
1
1
1
1
1
1
1
1
1
1
1
1
1
1
1
1
1
1
1
1
1
1
1
1
1
1
1
1
1
1
1
1
1
1
1
1
1
1
1
1
1
1
1
1
1
1
1
1
1
1
1
1
1
1
1
1
1
1
1
1
1
1
1
1
1
1
1
1
1
1
1
1
1
1
1
1
1
1
1
1
1
1
1
1
1
1
1
1
1
1
1
1
1
1
</DataArray>
<DataArray NumberOfComponents='1' type='Int32' Name='ParticleID' format='ascii'>
0
1
2
3
4
5
6
7
8
9
10
11
12
13
14
15
16
17
18
19
20
21
22
23
24
25
26
27
28
29
30
31
32
33
34
35
36
37
38
39
40
41
42
43
44
45
46
47
48
49
50
51
52
53
54
55
56
57
58
59
60
61
62
63
64
65
66
67
68
69
70
71
72
73
74
75
76
77
78
79
80
81
82
83
84
85
86
87
88
89
90
91
92
93
94
95
96
97
98
99
100
101
102
103
104
105
106
107
108
109
110
111
112
113
114
115
116
117
118
119
120
121
122
123
124
125
126
127
128
129
130
131
132
133
134
135
136
137
138
139
140
141
142
143
144
145
146
147
148
149
150
151
152
153
154
155
156
157
158
159
160
161
162
163
164
165
166
167
168
169
170
171
172
173
174
175
176
177
178
179
180
181
182
183
184
185
186
187
188
189
190
191
192
193
194
195
196
197
198
199
200
201
202
203
204
205
206
207
208
209
210
211
212
213
214
215
216
217
218
219
220
221
222
223
224
225
226
227
228
229
230
231
232
233
234
235
236
237
238
239
240
241
242
243
244
245
246
247
248
249
250
251
252
253
254
255
256
257
258
259
260
261
262
263
264
265
266
267
268
269
270
271
272
273
274
275
276
277
278
279
280
281
282
283
284
285
286
287
288
289
290
291
292
293
294
295
296
297
298
299
300
301
302
303
304
305
306
307
308
309
310
311
312
313
314
315
316
317
318
319
320
321
322
323
324
325
326
327
328
329
330
331
332
333
334
335
336
337
338
339
340
341
342
343
344
345
346
347
348
349
350
351
352
353
354
355
356
357
358
359
360
361
362
363
364
365
366
367
368
369
370
371
372
373
374
375
376
377
378
379
380
381
382
383
384
385
386
387
388
389
390
391
392
393
394
395
396
397
398
399
400
401
402
403
404
405
406
407
408
409
410
411
412
413
414
415
416
417
418
419
420
421
422
423
424
425
426
427
428
429
430
431
432
433
434
435
436
437
438
439
440
441
442
443
444
445
446
447
448
449
450
451
452
453
454
455
456
457
458
459
460
461
462
463
464
465
466
467
468
469
470
471
472
473
474
475
476
477
478
479
480
481
482
483
484
485
486
487
488
489
490
491
492
493
494
495
496
497
498
499
</DataArray>
<DataArray NumberOfComponents='1' type='Int8' Name='IsActive' format='ascii'>
1
0
1
0
0
1
0
0
1
1
1
1
1
1
1
0
0
0
1
0
0
1
0
1
0
0
1
0
1
1
0
1
1
0
1
0
0
0
1
0
1
1
1
1
0
1
1
0
0
0
0
1
0
1
1
1
1
1
0
1
1
0
1
0
0
1
1
0
1
0
0
1
1
0
1
1
0
0
0
0
1
0
1
0
0
1
1
0
0
0
1
0
0
0
0
0
1
0
0
0
0
1
0
0
0
0
0
0
0
1
0
0
1
0
1
0
0
0
1
1
1
1
0
0
0
1
0
0
0
1
1
1
0
0
0
0
0
0
1
1
0
0
0
0
0
1
1
0
0
0
0
1
0
0
1
1
1
1
1
1
0
1
0
0
1
0
0
0
1
1
1
0
0
1
0
0
1
0
0
0
0
1
0
1
1
0
0
1
0
1
0
0
0
0
1
0
0
1
0
1
0
0
1
0
1
0
1
0
0
1
0
0
0
0
1
0
0
0
0
1
0
0
1
0
0
1
0
1
1
0
0
1
1
0
1
1
0
1
0
1
1
0
0
0
0
1
0
1
1
1
0
0
1
1
0
1
0
1
1
1
0
1
0
0
0
0
1
0
0
1
0
1
0
0
0
0
0
0
0
0
0
0
1
0
0
1
0
1
0
1
1
0
0
1
1
0
0
0
0
1
1
0
0
0
1
0
0
1
1
1
0
1
1
0
0
1
0
1
0
0
0
0
1
1
1
0
1
1
0
0
1
1
1
0
0
0
1
1
1
0
0
1
0
1
1
0
0
0
0
1
0
1
1
0
1
0
1
0
0
1
0
0
1
0
1
1
1
1
0
0
1
1
0
1
0
1
0
1
0
0
0
0
1
0
0
1
0
0
1
0
0
1
0
0
0
1
1
1
0
1
0
1
0
1
0
1
0
0
0
0
1
0
1
1
0
1
0
0
1
0
0
1
1
0
0
0
0
1
0
0
0
1
0
0
0
1
0
0
0
1
0
0
0
0
0
0
0
0
0
1
1
0
1
0
1
0
1
0
0
1
1
0
0
1
1
1
1
0
1
0
0
1
1
1
0
0
1
1
0
1
1
0
1
0
1
0
1
1
0
0
0
1
1
1
1
0
0
0
0
0
</DataArray>
<DataArray NumberOfComponents='1' type='Int32' Name='ParticleTetID' format='ascii'>
40801
-50400
70468
-69862
-102510
103634
-69112
-82730
27150
93718
44341
73336
86108
2272
48572
-93293
-91090
-74058
73356
-98831
-12127
54196
-98411
25226
-93293
-102840
38691
-91191
100560
59493
-34180
51764
5932
-39168
82837
-81615
-69112
-42296
-100758
-96731
46756
79797
70446
65395
-90119
89209
94294
-93119
-79211
-82225
-90337
80251
-25302
89738
50132
-96944
81148
64777
-27681
35600
92307
-90337
39671
-57434
-90680
72893
102933
-27681
4148
-104925
-80727
24592
74140
-96019
80251
105573
-75610
-98411
-34180
-57434
62811
-57434
89957
-42296
-102510
79526
88295
-50400
-98306
-69112
17076
-93293
-104802
-99907
-83399
-79063
99903
-90337
-79597
-82515
-90622
20471
-96019
-58762
-86274
-93119
-58762
-98765
-86274
87449
-96731
-44272
33411
-24526
104235
-92602
-87306
-96325
98699
102838
101411
104550
-74058
-98831
-39168
47870
-98765
-39168
-17626
98333
71654
100092
-96325
-104925
-58762
-64130
-96944
-104802
44536
15485
-95998
-92602
-88016
-12127
-70156
32949
26902
-70156
-92373
-88016
-44138
-105710
-83215
-102510
99986
66403
100342
46330
99903
66472
-39168
54865
-96019
-17626
32341
-39168
-90337
-74393
86436
51271
97137
-87514
-102840
57691
-93819
-39168
99809
-96354
-39168
-102840
-91248
83134
-91090
4513
105347
-89958
-89958
97137
-96849
87473
-96019
-92373
-85990
-91248
95611
-69112
-83215
105960
-85990
62510
-102840
-83820
72150
-64130
38408
-83215
20689
-90337
-98831
104730
-34180
-104802
-98210
-27681
86360
-69112
-98308
-91248
-61396
92108
-70156
-46315
65926
-74393
-102840
13360
-82524
80990
105990
-96944
-70433
69970
100822
-99021
87975
17000
-83399
49035
-104802
88127
83533
-81615
-58762
-98308
-102510
71723
-90231
60454
42063
90530
-82225
-34180
30229
9628
-27681
103824
-84540
99980
51311
31530
-104802
31530
-42296
-93119
-98210
-42296
93247
-90131
-83399
99252
-96019
85474
-94130
-91191
-25302
-83399
-58762
-99021
-79211
-98411
-48492
-96019
38376
-79211
-96944
61737
-100353
93306
-96019
75901
67130
-61396
-34180
3457
30692
-90680
-98831
-70433
-100422
75861
59144
-24687
-82730
-102840
-81615
-90622
-83399
11612
67247
73428
-64130
48151
-89958
-42296
-104925
100092
-88016
76545
-27681
-57434
-92602
-94146
76904
67185
74099
-34180
101063
90359
-83215
-91191
100092
61680
49891
-96731
-101355
-96731
49035
18823
98826
-98411
-94146
31414
-44138
89308
47915
-58762
-71594
-17626
-25092
57591
-61396
-96893
91618
-96849
49109
-25092
66943
-27681
-99052
62677
-17626
-98831
61478
-83820
44600
105750
74003
100743
-56272
-82325
94345
74146
-91191
75272
-83215
63410
-96325
95075
-98308
-43214
-98306
-44138
105713
-44138
-19405
69075
-70156
-34180
68541
-101044
-48492
26528
-94130
-98308
-42296
11437
6200
101296
-94130
37711
-93119
101509
-24687
41669
-89958
66344
-81615
-42296
-42146
-83215
49244
-70433
40048
74324
-94130
69611
-99096
-69862
38175
-94130
-99911
34558
92995
-91248
-96944
-25092
-92373
95959
-104925
-102840
-24526
95894
-102840
-24687
-19405
81960
-96944
-83399
-98210
78689
-98831
-79597
-34180
-96731
-69914
-92373
-99721
-44138
-27681
53417
41273
-44138
54718
-24526
68703
-90680
42977
-50400
-42296
95605
64515
-105531
-42146
88021
23626
86436
25681
-95447
74278
-99721
-100561
65977
46816
100376
-96019
-44138
101063
43380
-42146
30720
99121
-91090
101063
-96019
57013
-98411
88116
54635
-46315
-78226
-79211
79210
88978
80746
100015
-104925
-99721
-44138
-90337
-102840
</DataArray>
<DataArray NumberOfComponents='3' type='Float32' Name='vels' format='ascii'>
11.429533 -6.273484 -0.019616
22.746117 0.571945 -0.290697
1.362689 0.008808 -0.003066
20.081773 -0.217840 -0.277921
23.484112 -0.510887 0.083072
2.305751 -0.018041 0.002348
20.333378 0.277334 -0.621174
12.783111 0.221707 0.073535
6.832491 -3.488765 -0.009020
8.044286 -2.299848 -0.005126
15.530287 1.768136 0.050527
1.437932 0.002879 -0.006716
17.421672 -3.135591 -0.006743
4.968506 -1.230247 -0.004349
4.117499 -0.200603 -0.020645
20.644419 -0.244898 0.011251
14.087736 0.281257 1.252631
14.293141 1.904616 0.878634
18.606005 -2.221023 0.004763
19.044396 -1.244907 -0.238396
21.835456 0.067503 1.640637
12.968412 -0.130996 0.018209
20.051412 -0.328575 -0.076616
2.348300 -0.007972 0.010970
18.297037 -0.214221 0.115799
22.591256 -0.226395 0.244628
4.082549 0.383444 -0.129260
21.418610 0.522880 0.667956
0.097816 0.063407 -0.008399
10.988538 0.194227 0.016968
22.058982 -0.221339 0.905368
2.680786 -0.306418 0.000648
10.477596 0.033914 0.062658
19.420937 -0.419907 0.689956
10.664091 -0.311526 -0.018462
9.873437 -0.276749 0.223623
19.690416 0.183231 -1.354405
17.262796 -0.581290 -0.236368
13.020581 -0.450925 -1.719911
13.718675 -1.653544 -1.157650
0.623748 -0.007596 0.025795
4.107359 -0.829329 -0.002477
16.410219 -0.394871 -0.002107
4.929191 -0.094607 -0.010289
23.253517 -0.506630 -0.243077
2.757405 0.004350 -0.000237
0.010001 0.016179 -0.002998
21.234953 -0.478901 -0.021576
16.783738 0.725048 0.022270
15.336051 -0.375124 2.450828
15.641460 0.592641 2.478244
0.055909 -0.028255 0.009581
23.583462 0.705706 0.031841
0.036921 0.073313 -0.002490
1.737483 -2.633567 0.055453
12.898903 0.342379 1.238865
11.948179 0.899062 0.006744
11.374968 3.646222 0.023514
16.294222 1.334800 -0.294998
13.208285 0.560796 -0.047411
15.504243 3.673518 0.025275
15.971599 0.661878 2.362355
1.794407 -0.003417 0.015986
16.469972 -0.440812 0.460427
8.803361 -0.053175 -1.230980
0.587586 0.005592 -0.000141
11.052807 5.771985 0.006592
16.358776 2.099030 -0.512324
9.202557 0.418752 -0.041948
12.106804 0.099396 -0.173926
20.829917 -0.376475 0.351593
4.873852 0.465798 0.019394
8.721268 -0.258650 0.012360
21.624399 0.251894 -0.102345
-0.057813 0.004933 0.000490
14.673000 -7.375850 0.028254
18.270654 -0.489875 0.186874
16.029687 -0.488661 0.199500
22.453575 -0.519201 0.546982
20.858756 -0.561026 1.745228
11.478235 -0.873256 0.000469
22.318605 -0.637696 0.060034
12.499693 0.205863 -0.020233
17.872999 -0.508012 -0.210598
21.544261 -0.576351 -0.237666
3.610428 -0.625381 -0.001218
21.674521 1.247306 0.143170
22.850020 0.504740 0.291769
16.743318 -0.167094 -0.066923
20.405083 0.175823 -1.416689
14.216009 1.435305 0.013666
18.397170 2.312845 0.926571
22.928140 -0.721532 0.020940
1.092060 -0.057378 -0.099089
21.674624 0.629290 -1.020716
0.117633 0.000420 0.000014
0.127195 0.028446 0.018288
18.277976 1.459873 2.053854
15.193783 -0.200755 0.411678
8.382616 -1.056661 1.118900
9.911597 0.030293 -0.531683
4.165019 0.011825 -0.012973
16.604183 0.954922 -1.554912
16.518350 0.455337 -2.328386
22.200797 0.725471 -0.532589
19.328759 -0.349707 0.354440
19.388330 0.531497 -1.176200
23.505890 -0.017541 0.011079
21.587448 0.974728 -0.641169
14.407184 0.490803 0.012863
16.482712 -1.531327 -0.673981
20.251569 0.364379 1.295825
2.294138 0.022571 -0.000307
22.036278 0.624905 -0.469285
10.840710 -0.306424 -0.131150
10.498283 -0.075992 -0.761585
21.786999 -0.601339 -0.143358
14.298232 0.925327 0.629781
0.209514 0.001637 -0.002671
3.570531 0.109860 -0.188998
0.014266 -0.002268 0.000099
0.335204 0.077415 -0.000148
14.099799 2.576252 1.169191
13.357897 -0.648771 -0.039844
17.437643 -0.326126 1.677305
12.984557 -1.208155 -0.071794
23.130137 -0.019389 0.136113
16.798710 -0.409249 0.846982
21.975496 -0.398811 0.347033
13.650525 0.521452 0.125035
10.721441 1.832731 -0.026651
-0.113740 0.032654 -0.005063
17.775444 0.811653 0.366037
14.614608 -2.401172 0.802102
16.323602 0.461840 -1.527500
20.101702 0.219511 -1.888051
10.340887 0.260235 0.538024
23.078656 -0.988561 -0.027553
4.316866 0.041072 -0.026228
2.628196 -0.213917 0.006743
22.910553 -0.665074 -0.024346
15.478941 0.434950 -2.683764
3.843808 0.025786 -0.011749
23.086697 0.462772 0.127130
20.097993 -0.001831 0.998274
7.950648 0.217444 0.036749
13.595501 -0.658553 -0.028519
21.604291 0.016050 0.594368
20.440455 0.307652 -1.507826
3.309534 0.025848 -0.069147
16.746200 -1.534288 1.226030
10.253146 0.947459 1.119102
23.785807 0.531745 -0.031865
21.848852 0.420922 0.793156
14.707969 -0.557425 0.050741
12.043698 -0.225712 -0.087015
13.481221 -0.255444 0.101925
9.931121 2.808947 -0.011488
-0.058044 -0.006793 0.011542
14.198569 0.573098 0.022873
17.330247 -0.352344 1.789258
13.453877 -0.835915 -0.068037
19.581049 0.422816 -0.371368
23.074533 -0.332614 -0.039117
10.743123 1.519682 0.002029
16.564731 -0.331065 1.203524
19.095386 0.410807 1.106184
21.597133 -0.714607 0.164443
11.857004 0.490649 -0.088389
7.167265 -0.085516 0.015310
-0.004003 -0.004333 0.004301
18.889380 -0.021748 0.028150
23.744358 -0.623742 0.078356
6.402262 -0.568771 -0.024163
21.550093 0.597724 0.177560
19.931805 -0.620684 -0.104144
0.420219 -0.000378 -0.001124
22.186483 -0.580909 0.085191
18.532700 -0.364004 0.898198
22.731125 -0.410106 -0.267865
16.903104 -0.287756 -3.000994
12.030531 -0.831919 0.025146
14.810948 0.363075 0.196271
11.034132 -0.394875 -0.016578
3.609101 0.008662 -0.018697
15.925088 1.660978 -1.064572
13.425174 2.439846 -1.661108
0.030971 -0.001550 -0.007471
22.474392 0.693944 0.051149
6.067591 1.822909 0.009499
16.990761 0.499263 -0.526326
17.556272 0.387056 -1.088772
22.424382 0.267650 -0.125181
19.438241 -0.645570 0.307630
1.094845 0.008703 0.000346
19.790404 0.145941 -0.245545
23.805036 0.246133 -0.090822
15.498373 0.161789 -0.049916
17.974424 -0.188307 1.097113
10.359092 0.592133 0.045047
22.916248 -0.253452 -0.514480
18.818351 0.349067 -1.391396
5.984240 0.434602 -0.041752
15.899244 0.166904 -2.510908
7.117101 -0.128483 0.010652
23.480659 0.156312 -0.174877
6.614048 -0.011243 0.008467
18.643998 0.568643 0.689326
18.384430 -0.878138 0.303210
14.110879 -0.706258 -0.002697
23.583081 -0.560089 0.024302
23.161558 -0.767744 -0.045548
20.291565 1.561776 -0.694303
16.401910 -0.321120 -0.053734
10.791971 0.640357 0.033686
21.410000 0.626257 0.310330
18.442322 0.652253 -0.220620
17.690202 -0.279277 -2.290119
18.769647 0.377517 0.667154
2.157737 -0.020763 0.000624
17.750980 -0.020871 0.508239
17.540848 0.458101 -1.060460
10.127574 1.349390 0.071332
20.417662 -0.645471 0.231195
23.602854 -0.615112 0.038929
11.346556 0.412542 0.011282
18.576584 -0.501876 -0.358508
2.546137 1.057266 0.001416
6.396366 -0.012310 -0.024598
13.702585 0.396953 0.289287
6.917325 -0.024386 0.013341
-0.076410 -0.032946 0.006315
9.674648 4.496540 -0.009539
21.328316 0.562810 0.238438
11.443976 0.376651 -0.088808
4.098958 0.017260 -0.002492
22.195289 0.732663 -0.247530
17.553843 -1.802106 0.067516
22.344953 -0.609651 0.782143
15.878969 0.028406 0.004354
17.926170 -0.842743 -0.072787
15.872573 -0.624415 -0.376809
21.407858 0.824238 0.337188
17.297617 0.488402 2.433505
23.606339 -0.372745 -0.031862
2.556856 0.024914 0.050128
13.166489 -0.210343 -1.750043
4.579967 0.054324 0.016140
14.059685 1.404175 -0.084656
17.762569 -0.121369 0.008349
14.328609 -0.354769 1.438157
21.838368 -0.661170 -0.191753
4.480963 0.013037 0.006313
12.416930 -0.346996 -0.017978
15.580226 -0.323972 0.093963
12.889641 -0.931468 0.020386
21.053992 -0.422851 0.024730
0.128904 0.001933 0.061034
1.900284 0.027304 0.000077
12.031308 0.196809 -0.000569
23.244983 -0.730652 -0.131282
4.061239 0.080990 0.000184
20.722970 -0.207133 -0.102217
22.750940 -0.531753 0.033055
20.545453 -0.083357 -0.102342
20.285490 -0.903266 0.046184
3.950002 -0.652172 0.000366
21.801124 0.497681 -0.757091
19.879728 0.548398 -0.714806
8.521288 1.681585 -0.042839
18.274489 0.518023 -0.272507
0.092452 0.007785 -0.009407
22.049778 0.519534 -0.195881
19.783170 0.573937 0.196976
23.087101 0.531150 0.110178
20.744513 0.554739 -1.416790
18.689961 0.464014 -2.153891
22.952633 -0.348073 -0.012363
15.385875 1.081334 -0.018862
20.312842 -0.228192 -0.737240
18.555870 0.457150 -0.153506
18.423548 1.307541 -2.021391
13.405579 0.560373 0.110665
16.597472 0.870109 0.031602
13.153952 0.251382 1.635128
10.077956 1.158314 0.023145
15.862789 -1.859636 -1.900831
0.179652 0.000318 -0.000500
20.159521 0.339274 -0.414015
18.301170 -3.716519 0.016864
10.807670 -0.330263 -0.100628
21.204620 0.562607 -0.004813
21.937366 -0.464106 0.805875
4.533642 -6.550271 0.289338
13.277756 -0.007460 -0.034903
19.470028 -0.491725 -0.239990