<VTKFile type='UnstructuredGrid' version='1.0' byte_order='LittleEndian' header_type='UInt64'>
<UnstructuredGrid>
<Piece NumberOfCells='500' NumberOfPoints='500'>
<Points>
<DataArray NumberOfComponents='3' type='Float32' Name='Position' format='ascii'>
0.470470 0.614906 0.226936
0.967555 0.266443 0.117333
0.111932 0.980202 0.222672
0.697009 0.786454 0.185096
1.102117 0.863549 0.106642
0.068536 0.191513 0.247478
0.853252 0.239327 0.074720
0.543232 0.799434 0.209589
0.453904 0.615833 0.224897
0.403382 0.769098 0.227315
0.321086 0.247469 0.035488
0.086813 0.006719 0.058891
0.483610 0.541820 0.219654
0.255988 0.255505 0.236423
0.460621 0.693760 0.215072
0.838996 0.909833 0.150508
0.454489 0.322615 0.203819
0.528927 0.929200 0.160087
0.103797 0.791290 0.218560
0.812161 0.095778 0.112830
1.093148 0.152093 0.145842
0.014816 0.098890 0.236735
0.861094 0.758238 0.078847
0.089052 0.991367 0.149583
0.883892 0.910101 0.130266
1.065208 0.837140 0.118815
0.887564 0.493369 0.100961
0.935356 0.262117 0.159176
0.032565 0.846360 0.003389
0.276012 0.936385 0.218874
1.037384 0.809071 0.151898
0.184191 0.311484 0.241928
0.296450 0.960193 0.184096
0.690394 0.650490 0.181347
0.442001 0.955974 0.127571
0.635461 0.596566 0.202492
0.882984 0.220750 0.076783
0.949994 0.093032 0.123547
0.553434 0.571829 0.046461
0.548355 0.091995 0.068394
0.361949 0.090020 0.215993
0.240050 0.292062 0.238796
0.164106 0.294276 0.005767
0.209650 0.038702 0.031875
1.037054 0.800844 0.115747
0.046349 0.524867 0.007662
0.026924 0.125819 0.021646
0.939595 0.791955 0.166005
0.535450 0.930162 0.106345
0.618633 0.648900 0.199088
0.820224 0.873896 0.171849
0.020145 0.669636 0.221743
1.026370 0.207377 0.131739
0.034320 0.848024 0.004165
0.374745 0.478498 0.227841
0.492361 0.389699 0.207234
0.286656 0.856093 0.230996
0.576263 0.455807 0.040570
0.760070 0.917570 0.119545
0.313615 0.048320 0.165681
0.333298 0.253167 0.027016
0.845084 0.866110 0.173806
0.082152 0.993427 0.192963
0.655302 0.618330 0.190044
0.574227 0.656296 0.043149
0.087348 0.722907 0.004107
0.372060 0.389485 0.029400
0.820410 0.914616 0.128568
0.437557 0.105781 0.204473
0.716079 0.101567 0.155654
0.956945 0.118379 0.157156
0.435279 0.467251 0.027393
0.423853 0.962152 0.113929
0.886432 0.876924 0.087889
0.041195 0.651788 0.243041
0.392211 0.578331 0.029023
0.702667 0.684073 0.055735
0.791722 0.726753 0.067636
0.951708 0.748848 0.155150
0.914924 0.655360 0.150185
0.012901 0.206769 0.215970
0.931144 0.702822 0.150663
0.605142 0.912130 0.068632
0.958801 0.092119 0.120092
1.157732 0.877921 0.122160
0.214902 0.255883 0.239181
0.241076 0.965049 0.185875
0.962280 0.270181 0.134557
0.700058 0.081929 0.105421
0.841912 0.223823 0.077870
0.399114 0.586954 0.020804
0.849913 0.908536 0.124569
1.013832 0.780447 0.136848
0.517009 0.244494 0.039164
0.945694 0.293966 0.106884
0.061215 0.613101 0.247853
0.016149 0.557609 0.248909
0.688318 0.793078 0.194572
0.529139 0.838663 0.048149
0.336565 0.145935 0.201322
0.599061 0.242447 0.046767
0.022755 0.985148 0.176845
1.082136 0.886452 0.102348
0.893197 0.355797 0.083856
1.103086 0.884107 0.134402
0.822992 0.743729 0.177192
0.915530 0.353689 0.095834
1.142752 0.130090 0.125416
1.110661 0.884699 0.129295
0.475926 0.050289 0.116326
0.820953 0.105798 0.091770
0.815484 0.452838 0.179202
0.102319 0.907461 0.241302
0.916254 0.375971 0.103840
0.461394 0.694020 0.215201
0.572724 0.711860 0.042373
0.909554 0.648048 0.096950
0.764185 0.891258 0.171532
0.022373 0.993323 0.222142
0.845125 0.497747 0.081058
0.054136 0.043538 0.006120
0.378639 0.320791 0.212754
0.539262 0.926647 0.154602
0.685420 0.073186 0.123634
0.644014 0.663454 0.187424
0.383897 0.898278 0.028918
1.079601 0.120275 0.135060
0.682710 0.640188 0.192060
1.081038 0.870091 0.099506
0.470280 0.121085 0.037516
0.351150 0.169285 0.225760
0.014363 0.503052 0.224500
0.832788 0.887041 0.166516
0.631298 0.066768 0.150140
0.867548 0.379123 0.078116
0.645167 0.301992 0.052435
0.676960 0.429084 0.198197
0.993541 0.752105 0.125959
0.190023 0.984316 0.099770
0.279560 0.491746 0.234677
0.932019 0.656465 0.121144
0.651387 0.708334 0.050201
0.612175 0.347122 0.040924
1.045840 0.183004 0.143343
1.030838 0.841571 0.159980
0.229650 0.969214 0.191117
0.233380 0.018350 0.101582
0.812116 0.772090 0.180334
0.565747 0.308902 0.047233
0.560383 0.326983 0.038077
0.724216 0.118032 0.170146
0.503389 0.870106 0.205443
1.122881 0.149125 0.132633
1.105312 0.868381 0.143760
0.409833 0.958133 0.088219
0.351917 0.959674 0.172946
0.198958 0.038545 0.161326
0.496457 0.432652 0.033325
0.032504 0.567746 0.248814
0.467508 0.561724 0.225004
0.748811 0.677357 0.180956
0.382576 0.950919 0.175452
0.921153 0.874781 0.092596
1.104352 0.875756 0.113626
0.352269 0.144086 0.224024
0.794403 0.684479 0.177534
0.739070 0.838383 0.182788
0.887899 0.598463 0.095632
0.343830 0.047666 0.166717
0.266412 0.034089 0.168481
0.039602 0.988355 0.127133
0.706352 0.152534 0.065172
1.093855 0.848580 0.136302
0.460219 0.690585 0.216722
0.884886 0.400881 0.153150
0.779325 0.646768 0.180724
0.030412 0.985694 0.005510
0.914755 0.599176 0.123614
0.691090 0.687371 0.185203
1.077993 0.841717 0.109068
0.915719 0.690091 0.096179
0.442013 0.859720 0.042379
0.553512 0.343883 0.209524
0.416673 0.938556 0.171676
0.022165 0.014932 0.077806
0.699884 0.904779 0.089413
0.616041 0.917689 0.072495
0.037464 0.988646 0.138464
0.942204 0.303690 0.125720
0.300931 0.782758 0.237869
1.011051 0.878337 0.092096
0.762268 0.343160 0.061307
1.042794 0.148183 0.149904
0.824915 0.707326 0.075202
0.040187 0.883568 0.246968
0.828716 0.226053 0.074615
1.119143 0.136628 0.126299
0.305147 0.045057 0.157962
0.986107 0.141727 0.164503
0.463568 0.132112 0.036498
1.052837 0.833365 0.101880
0.857100 0.795450 0.072403
0.282481 0.899084 0.019201
0.660406 0.249329 0.054460
0.309745 0.032093 0.189551
1.159843 0.136963 0.118474
0.019505 0.158295 0.235025
0.834564 0.858461 0.174659
0.807104 0.093785 0.144268
0.202311 0.476494 0.242126
1.025730 0.792234 0.131698
1.003494 0.770283 0.126800
0.968225 0.899508 0.128344
0.767962 0.917911 0.125038
0.420260 0.093305 0.044674
1.069982 0.148623 0.103361
0.901039 0.358713 0.155812
0.620262 0.678690 0.062412
0.907870 0.247418 0.173761
0.090884 0.026211 0.023828
1.012233 0.847104 0.158491
0.752679 0.453726 0.062815
0.385211 0.149278 0.025134
0.918344 0.606574 0.107157
1.027585 0.826801 0.144424
0.384669 0.048922 0.127654
0.847079 0.642285 0.073792
0.303360 0.535185 0.014991
0.299140 0.025506 0.098010
0.605937 0.426751 0.202971
0.627050 0.206693 0.053000
0.039918 0.708836 0.240271
0.266343 0.596276 0.013509
1.103645 0.115212 0.136836
0.442770 0.063933 0.168293
0.108892 0.968677 0.214298
0.924268 0.323772 0.098682
0.538242 0.598808 0.035539
0.923311 0.633615 0.132205
0.242841 0.930397 0.205636
0.268739 0.112702 0.021420
0.543471 0.626775 0.210185
0.747676 0.401335 0.065884
0.710438 0.383366 0.185788
1.127267 0.858337 0.112506
0.712043 0.507235 0.063724
0.572543 0.636184 0.042996
0.191318 0.980603 0.159277
0.376440 0.119537 0.212644
0.032611 0.209102 0.020962
0.541471 0.624060 0.200777
1.038111 0.806473 0.142904
0.315020 0.975147 0.141767
0.473879 0.948617 0.114791
0.794204 0.916346 0.137159
0.381773 0.412649 0.229245
0.888412 0.546930 0.102528
0.032703 0.995589 0.045693
0.039976 0.793198 0.006189
0.010027 0.621616 0.216977
0.925999 0.669327 0.138825
0.032567 0.622883 0.242837
0.952065 0.092585 0.114585
1.005534 0.809393 0.154443
0.960054 0.887962 0.151304
0.870366 0.109273 0.149384
0.202302 0.395272 0.013077
0.904435 0.452125 0.110611
0.854436 0.323223 0.074676
0.336419 0.778252 0.231330
0.817480 0.893940 0.088431
0.036424 0.189750 0.014031
0.991787 0.211365 0.093134
0.770874 0.365903 0.172901
0.997304 0.227265 0.111869
0.881475 0.339835 0.081463
0.791083 0.389328 0.073858
1.092182 0.126421 0.107569
0.735761 0.916291 0.103962
0.852688 0.747092 0.077508
0.774695 0.888138 0.081642
0.878212 0.888989 0.090521
0.470408 0.116312 0.038487
0.541823 0.927992 0.104936
0.631250 0.406079 0.198084
0.429377 0.196647 0.029180
0.692752 0.111135 0.069265
0.082772 0.964370 0.238751
0.866280 0.868923 0.076044
0.098758 0.742108 0.031670
0.499371 0.868258 0.210906
0.872377 0.265606 0.165316
1.065645 0.819732 0.130454
0.454068 0.481352 0.210894
0.302615 0.066400 0.033730
0.571557 0.645196 0.037852
0.778637 0.085492 0.148080
0.500909 0.195112 0.037655
0.905791 0.543513 0.112525
0.419951 0.486341 0.226766
0.856671 0.519368 0.164653
0.951699 0.114077 0.095511
0.573444 0.817254 0.206879
1.072149 0.832454 0.140164
0.562641 0.630811 0.214957
0.565802 0.284113 0.042119
0.921083 0.327676 0.102475
0.499328 0.949840 0.124402
0.193005 0.145964 0.029481
0.457928 0.926076 0.070093
0.673247 0.261241 0.059065
0.338513 0.489730 0.017659
0.488678 0.927738 0.081138
0.952307 0.104070 0.135162
0.736407 0.075685 0.151370
0.017046 0.507699 0.235256
0.586796 0.335027 0.042632
0.319722 0.317894 0.232930
0.623528 0.921735 0.117817
0.895491 0.681841 0.167650
0.597340 0.692304 0.042389
0.824400 0.773254 0.184462
0.503923 0.610867 0.036705
0.203935 0.980279 0.195356
0.039139 0.426275 0.017000
1.032370 0.807604 0.147524
0.029166 0.373820 0.239842
0.355650 0.062756 0.038558
1.133488 0.135740 0.119394
0.778136 0.353397 0.178245
0.013150 0.515469 0.243213
0.144715 0.437004 0.228114
0.221479 0.038061 0.043484
0.705134 0.110550 0.075838
0.007575 0.606212 0.000322
0.684368 0.099429 0.077235
0.533342 0.555024 0.043749
0.529042 0.620705 0.032663
0.007847 0.280783 0.235709
1.037419 0.828448 0.096316
0.771519 0.769058 0.189262
0.550896 0.534937 0.042593
0.731097 0.099300 0.169519
0.276387 0.962126 0.067750
0.023268 0.130100 0.025869
0.872053 0.350969 0.077015
0.010894 0.889685 0.249247
1.126132 0.876743 0.124837
0.806484 0.539881 0.071797
0.641026 0.553286 0.201321
0.910084 0.237427 0.173545
0.481470 0.109979 0.043350
0.018527 0.982532 0.216723
0.920842 0.359907 0.139618
0.355742 0.900492 0.225429
0.868557 0.566371 0.084200
0.121788 0.009406 0.206069
0.689565 0.922377 0.137029
0.531509 0.845830 0.205443
0.435627 0.893841 0.044306
1.154397 0.875296 0.123443
0.800834 0.091634 0.137143
0.283953 0.953179 0.201647
1.014795 0.847305 0.086576
0.188771 0.027854 0.041887
0.225097 0.020091 0.163480
0.853814 0.480582 0.084375
0.017205 0.747147 0.010948
0.875677 0.145479 0.077734
0.538571 0.265933 0.215397
0.740447 0.502331 0.064346
0.029796 0.535685 0.227140
0.908576 0.280131 0.165195
0.414070 0.859425 0.036263
1.081619 0.157951 0.113992
0.907600 0.480775 0.112728
0.660432 0.887594 0.181796
0.428381 0.140222 0.217139
0.702681 0.400194 0.187390
0.521425 0.935855 0.140676
0.782975 0.090167 0.102100
0.643356 0.117489 0.185400
0.252664 0.036807 0.210755
0.769041 0.112085 0.174114
0.900884 0.444864 0.142060
0.316220 0.956829 0.089074
1.040938 0.865874 0.157609
1.032640 0.797230 0.136112
0.228848 0.976768 0.093266
0.034922 0.000374 0.183493
0.546857 0.884129 0.057877
0.240819 0.484536 0.009167
0.981029 0.252115 0.103542
0.731881 0.414827 0.186599
0.956172 0.103913 0.133459
0.483625 0.636947 0.027528
0.460928 0.119310 0.209353
0.059705 0.983367 0.021602
0.861111 0.299867 0.080089
0.449584 0.447585 0.219582
0.876186 0.727668 0.168082
0.018098 0.014389 0.080717
0.983535 0.114607 0.097785
0.023553 0.960871 0.014883
0.641001 0.918791 0.077610
0.417154 0.101994 0.207721
0.600123 0.599942 0.207204
0.883838 0.104825 0.149104
0.711051 0.599986 0.192761
1.072949 0.161724 0.121647
0.512639 0.457090 0.207126
0.610401 0.224676 0.050662
0.453097 0.060583 0.173291
0.121882 0.989774 0.169114
0.938767 0.224895 0.088899
0.370399 0.075218 0.033839
0.924345 0.342930 0.142136
0.781542 0.820745 0.176526
0.796012 0.506449 0.180399
0.968769 0.217547 0.089962
0.702143 0.767193 0.053884
0.235644 0.098811 0.017884
0.295386 0.904335 0.219066
0.922974 0.717729 0.088407
0.601021 0.437512 0.196750
0.747188 0.540947 0.060665
0.888794 0.255854 0.074012
0.447980 0.651880 0.223644
0.675667 0.092511 0.161374
1.054786 0.826005 0.110764
0.788010 0.449152 0.074064
0.285239 0.035535 0.194548
1.001193 0.817817 0.149536
1.048213 0.115521 0.104517
0.909185 0.457967 0.132016
0.363820 0.537506 0.016538
0.587534 0.391989 0.199917
0.914358 0.317467 0.096395
1.001449 0.900571 0.141130
0.415212 0.405152 0.023939
0.731389 0.078649 0.121015
0.581089 0.806065 0.044310
1.072592 0.815705 0.128745
0.816370 0.104544 0.090059
0.907121 0.463920 0.114329
0.601639 0.306092 0.048740
0.682230 0.220144 0.195991
0.566842 0.125338 0.201119
0.781146 0.916409 0.112385
0.121993 0.618981 0.003966
0.047774 0.687205 0.248211
0.618615 0.107040 0.180691
0.433512 0.285057 0.031238
0.847890 0.430236 0.080795
0.034154 0.639676 0.011567
0.573346 0.649681 0.043197
0.462619 0.329448 0.221578
0.965786 0.269058 0.132771
0.864313 0.109784 0.153394
0.578644 0.417489 0.209382
0.178457 0.025313 0.041672
0.546524 0.858118 0.045726
0.782488 0.618812 0.176271
0.039877 0.572875 0.015035
0.518665 0.518885 0.217945
0.423793 0.045332 0.160726
0.379270 0.081460 0.212473
0.956180 0.237347 0.159610
0.421287 0.678943 0.019801
0.724505 0.211899 0.182611
0.036557 0.847960 0.001196
0.440261 0.846360 0.221577
0.027878 0.954853 0.012432
0.069717 0.003297 0.208171
1.044001 0.889072 0.098290
0.510101 0.117920 0.199837
0.029096 0.373913 0.238314
0.420509 0.871289 0.035674
0.703278 0.620793 0.191675
0.908747 0.511294 0.126451
0.026905 0.944162 0.001309
0.595862 0.324636 0.205269
0.018794 0.387336 0.245200
0.829049 0.877485 0.077917
0.322978 0.947066 0.053117
1.003142 0.828271 0.090121
0.747024 0.506112 0.063591
0.319692 0.949974 0.052722
0.754782 0.454267 0.063184
0.637083 0.566890 0.200784
0.502227 0.925107 0.090057
0.496630 0.945973 0.108665
0.231111 0.976744 0.070777
0.181257 0.020989 0.057382
0.292328 0.038142 0.174833
0.695243 0.080674 0.157929
0.698650 0.182154 0.185100
0.596909 0.131220 0.200286
0.689681 0.806465 0.186469
1.094057 0.836614 0.124672
</DataArray>
</Points>
<PointData>
<DataArray NumberOfComponents='1' type='Int32' Name='ParticleType' format='ascii'>
1
1
1
1
1
1
1
1
1
1
1
1
1
1
1
1
1
1
1
1
1
1
1
1
1
1
1
1
1
1
1
1
1
1
1
1
1
1
1
1
1
1
1
1
1
1
1
1
1
1
1
1
1
1
1
1
1
1
1
1
1
1
1
1
1
1
1
1
1
1
1
1
1
1
1
1
1
1
1
1
1
1
1
1
1
1
1
1
1
1
1
1
1
1
1
1
1
1
1
1
1
1
1
1
1
1
1
1
1
1
1
1
1
1
1
1
1
1
1
1
1
1
1
1
1
1
1
1
1
1
1
1
1
1
1
1
1
1
1
1
1
1
1
1
1
1
1
1
1
1
1
1
1
1
1
1
1
1
1
1
1
1
1
1
1
1
1
1
1
1
1
1
1
1
1
1
1
1
1
1
1
1
1
1
1
1
1
1
1
1
1
1
1
1
1
1
1
1
1
1
1
1
1
1
1
1
1
1
1
1
1
1
1
1
1
1
1
1
1
1
1
1
1
1
1
1
1
1
1
1
1
1
1
1
1
1
1
1
1
1
1
1
1
1
1
1
1
1
1
1
1
1
1
1
1
1
1
1
1
1
1
1
1
1
1
1
1
1
1
1
1
1
1
1
1
1
1
1
1
1
1
1
1
1
1
1
1
1
1
1
1
1
1
1
1
1
1
1
1
1
1
1
1
1
1
1
1
1
1
1
1
1
1
1
1
1
1
1
1
1
1
1
1
1
1
1
1
1
1
1
1
1
1
1
1
1
1
1
1
1
1
1
1
1
1
1
1
1
1
1
1
1
1
1
1
1
1
1
1
1
1
1
1
1
1
1
1
1
1
1
1
1
1
1
1
1
1
1
1
1
1
1
1
1
1
1
1
1
1
1
1
1
1
1
1
1
1
1
1
1
1
1
1
1
1
1
1
1
1
1
1
1
1
1
1
1
1
1
1
1
1
1
1
1
1
1
1
1
1
1
1
1
1
1
1
1
1
1
1
1
1
1
1
1
1
1
1
1
1
1
1
1
1
1
1
1
1
1
1
1
1
1
1
1
1
1
1
1
1
1
1
1
1
1
1
1
1
1
1
1
1
1
1
1
1
1
1
1
1
1
1
1
1
1
1
1
1
1
1
1
</DataArray>
<DataArray NumberOfComponents='1' type='Int32' Name='ParticleID' format='ascii'>
0
1
2
3
4
5
6
7
8
9
10
11
12
13
14
15
16
17
18
19
20
21
22
23
24
25
26
27
28
29
30
31
32
33
34
35
36
37
38
39
40
41
42
43
44
45
46
47
48
49
50
51
52
53
54
55
56
57
58
59
60
61
62
63
64
65
66
67
68
69
70
71
72
73
74
75
76
77
78
79
80
81
82
83
84
85
86
87
88
89
90
91
92
93
94
95
96
97
98
99
100
101
102
103
104
105
106
107
108
109
110
111
112
113
114
115
116
117
118
119
120
121
122
123
124
125
126
127
128
129
130
131
132
133
134
135
136
137
138
139
140
141
142
143
144
145
146
147
148
149
150
151
152
153
154
155
156
157
158
159
160
161
162
163
164
165
166
167
168
169
170
171
172
173
174
175
176
177
178
179
180
181
182
183
184
185
186
187
188
189
190
191
192
193
194
195
196
197
198
199
200
201
202
203
204
205
206
207
208
209
210
211
212
213
214
215
216
217
218
219
220
221
222
223
224
225
226
227
228
229
230
231
232
233
234
235
236
237
238
239
240
241
242
243
244
245
246
247
248
249
250
251
252
253
254
255
256
257
258
259
260
261
262
263
264
265
266
267
268
269
270
271
272
273
274
275
276
277
278
279
280
281
282
283
284
285
286
287
288
289
290
291
292
293
294
295
296
297
298
299
300
301
302
303
304
305
306
307
308
309
310
311
312
313
314
315
316
317
318
319
320
321
322
323
324
325
326
327
328
329
330
331
332
333
334
335
336
337
338
339
340
341
342
343
344
345
346
347
348
349
350
351
352
353
354
355
356
357
358
359
360
361
362
363
364
365
366
367
368
369
370
371
372
373
374
375
376
377
378
379
380
381
382
383
384
385
386
387
388
389
390
391
392
393
394
395
396
397
398
399
400
401
402
403
404
405
406
407
408
409
410
411
412
413
414
415
416
417
418
419
420
421
422
423
424
425
426
427
428
429
430
431
432
433
434
435
436
437
438
439
440
441
442
443
444
445
446
447
448
449
450
451
452
453
454
455
456
457
458
459
460
461
462
463
464
465
466
467
468
469
470
471
472
473
474
475
476
477
478
479
480
481
482
483
484
485
486
487
488
489
490
491
492
493
494
495
496
497
498
499
</DataArray>
<DataArray NumberOfComponents='1' type='Int8' Name='IsActive' format='ascii'>
1
1
1
1
1
1
1
1
1
1
1
1
1
1
1
1
1
1
1
1
1
1
1
1
1
1
1
1
1
1
1
1
1
1
1
1
1
1
1
1
1
1
1
1
1
1
1
1
1
1
1
1
1
1
1
1
1
1
1
1
1
1
1
1
1
1
1
1
1
1
1
1
1
1
1
1
1
1
1
1
1
1
1
1
1
1
1
1
1
1
1
1
1
1
1
1
1
1
1
1
1
1
1
1
1
1
1
1
1
1
1
1
1
1
1
1
1
1
1
1
1
1
1
1
1
1
1
1
1
1
1
1
1
1
1
1
1
1
1
1
1
1
1
1
1
1
1
1
1
1
1
1
1
1
1
1
1
1
1
1
1
1
1
1
1
1
1
1
1
1
1
1
1
1
1
1
1
1
1
1
1
1
1
1
1
1
1
1
1
1
1
1
1
1
1
1
1
1
1
1
1
1
1
1
1
1
1
1
1
1
1
1
1
1
1
1
1
1
1
1
1
1
1
1
1
1
1
1
1
1
1
1
1
1
1
1
1
1
1
1
1
1
1
1
1
1
1
1
1
1
1
1
1
1
1
1
1
1
1
1
1
1
1
1
1
1
1
1
1
1
1
1
1
1
1
1
1
1
1
1
1
1
1
1
1
1
1
1
1
1
1
1
1
1
1
1
1
1
1
1
1
1
1
1
1
1
1
1
1
1
1
1
1
1
1
1
1
1
1
1
1
1
1
1
1
1
1
1
1
1
1
1
1
1
1
1
1
1
1
1
1
1
1
1
1
1
1
1
1
1
1
1
1
1
1
1
1
1
1
1
1
1
1
1
1
1
1
1
1
1
1
1
1
1
1
1
1
1
1
1
1
1
1
1
1
1
1
1
1
1
1
1
1
1
1
1
1
1
1
1
1
1
1
1
1
1
1
1
1
1
1
1
1
1
1
1
1
1
1
1
1
1
1
1
1
1
1
1
1
1
1
1
1
1
1
1
1
1
1
1
1
1
1
1
1
1
1
1
1
1
1
1
1
1
1
1
1
1
1
1
1
1
1
1
1
1
1
1
1
1
1
1
1
1
1
1
1
1
1
1
1
1
1
1
1
1
1
1
1
1
1
1
1
1
1
1
1
1
1
1
</DataArray>
<DataArray NumberOfComponents='1' type='Int32' Name='ParticleTetID' format='ascii'>
80655
29981
103165
45378
26870
88115
82769
80376
2656
56918
93264
52922
74146
84709
103073
44063
48289
20144
103252
18233
51815
101388
45214
81789
67460
27354
69429
67957
100560
17967
57444
66846
20471
29802
22802
46179
32690
4336
103231
45888
36736
18573
85795
26634
4594
83524
94294
69854
1637
94532
6515
80251
52462
100560
37075
29203
82151
64122
45386
41872
65506
17573
89697
25083
4180
87437
11853
33193
32799
21277
82573
22641
6184
48174
80251
17576
35104
61273
70364
81959
99295
63487
20165
4336
21630
96471
97319
79876
16692
68332
17576
24923
36231
41169
101752
97152
99903
71176
38169
37612
5711
101500
21209
30305
65387
26215
65150
57666
19284
4904
52498
68581
38294
30453
103072
69336
4310
33811
101245
19316
31131
20936
6641
103254
28642
46571
19485
23592
3623
40344
84698
100092
6515
17473
56794
47738
78909
29302
3585
46751
19272
22905
34554
29860
8005
97319
13620
15452
64219
58898
21619
79295
15842
65768
70773
57237
66501
102579
99903
104330
74450
27941
11202
37019
105393
36532
22091
22445
41553
70080
97137
5007
62070
103072
9949
49941
101445
14159
28642
27354
29234
103403
4051
3663
101509
70069
69508
97137
51886
53
14295
104908
67542
59472
71593
67543
2108
33308
6979
40344
10804
22089
46820
1450
53334
83595
100903
6515
18233
57099
4594
65600
11956
45386
4775
11265
693
52765
34868
105279
7973
19374
76982
35687
4174
26446
66144
29848
105346
38227
4943
69970
54989
1671
5784
103165
32057
5240
32478
99304
72579
22283
970
8712
15688
83860
1124
63562
105392
29014
15172
57444
33471
102818
40612
105914
32248
99980
81035
100807
18963
100807
4336
42247
7706
76746
21304
13807
80908
14177
74620
85474
68433
6569
18540
24703
40179
2108
45386
49755
63496
54609
40344
1637
47789
104411
65770
99871
1243
53792
79295
18590
28447
29392
40068
4180
51108
93990
27147
55546
13279
4336
49990
36395
31115
4870
55484
102818
45746
4025
1450
22748
3399
27185
51108
100092
52903
104421
6062
29181
72034
71312
7338
26799
74099
57444
101063
17383
38655
6569
100092
105978
22635
37555
101354
65770
11061
60229
98826
15606
39118
11061
21619
19914
94294
104280
71593
12592
46321
41668
34868
40344
101245
22229
103348
40643
71307
15823
77036
24762
22115
28045
106069
25070
42758
65009
63038
100743
103687
95155
33793
77116
64130
29510
21439
56404
19688
43570
25850
102817
2270
13074
37264
9322
83459
19914
30233
10916
1587
101043
8713
93814
84705
25850
27185
65320
1579
99126
20351
36568
6385
101509
41008
101321
69508
58404
8898
76746
68540
20770
104251
5711
105715
11657
76581
3010
56067
40511
38214
54160
66270
68114
92798
43608
38227
16925
22691
2385
103253
17668
8544
81063
24413
53622
26229
79176
101604
32057
50822
17182
21277
39402
71611
52498
29483
69110
54017
78581
63496
33088
69970
105827
39412
559
76206
4180
48289
79876
86094
22462
42758
8399
51379
88021
51797
57258
36736
88806
5053
16567
100560
72544
95063
90466
21209
876
101063
54980
23592
18047
95063
19069
101063
74620
34844
32076
33793
34844
19374
69349
102817
102817
85212
42758
95795
103253
15547
78581
63467
22043
</DataArray>
<DataArray NumberOfComponents='3' type='Float32' Name='vels' format='ascii'>
16.603943 0.354973 -0.001603
17.993648 -14.189128 0.033185
2.617343 0.010478 0.013905
10.337023 1.378802 0.012598
40.422994 9.128278 -0.007577
0.697361 0.017367 0.002781
20.541580 -7.059353 0.002635
11.450465 0.495698 -0.003557
6.672519 0.151837 -0.002361
7.602645 0.168663 -0.000971
11.056863 -0.134898 -0.001447
1.422280 0.008216 -0.007917
9.707412 0.121982 0.002507
4.596730 -0.050087 -0.000852
0.122641 0.004306 0.000020
21.250620 2.345941 0.009025
5.018612 -0.118653 -0.000783
13.140274 0.156591 -0.041513
9.477865 -0.137104 0.073927
17.846353 -1.390765 0.041127
39.405280 -7.629246 0.020219
-0.066337 0.038427 -0.002308
21.258436 8.314629 -0.003777
2.047633 -0.000744 0.017695
23.686111 3.014795 -0.024385
36.429299 13.307923 -0.007034
10.676066 -0.386092 0.001302
19.108071 -12.721971 0.038812
0.000704 0.044832 -0.008666
7.116829 0.028082 0.027761
32.780269 12.919253 0.028265
2.876886 -0.012751 0.002199
7.200147 0.023230 -0.015962
16.130422 3.022860 -0.016609
9.917262 0.031949 -0.007278
13.217145 0.914162 0.002941
21.870213 -7.986668 0.012139
27.864285 -4.529684 -0.007129
13.135332 0.384011 0.002763
11.883260 -0.258244 0.017320
7.221732 -0.083241 0.041262
3.915559 -0.031498 0.002142
2.098269 0.004934 -0.006936
4.403445 -0.014697 -0.027036
30.389804 15.969293 -0.015467
0.010771 0.008654 -0.003684
-0.041595 0.017908 -0.001109
24.587463 10.738053 -0.003333
12.128314 0.140162 0.004023
14.908278 1.001380 0.001750
20.624441 2.675614 -0.010520
-0.012504 -0.032252 0.007908
28.571710 -16.300959 0.019822
0.110012 0.035308 -0.014524
13.057451 -0.030539 0.000926
13.023997 -0.322185 0.000383
5.788273 0.031011 -0.006458
12.525583 -0.303188 0.005153
19.486503 1.433093 0.002955
9.622213 -0.028219 0.026679
8.856055 -0.121196 -0.000744
21.600074 3.757557 0.001711
1.209319 0.000422 0.011884
15.985589 1.291385 0.007380
12.982553 0.715785 -0.002969
1.435801 -0.008271 -0.002061
9.671947 -0.088192 -0.000330
20.405796 1.862515 -0.014315
8.203938 -0.120455 -0.012693
16.318736 -0.943078 0.013935
29.289662 -6.356011 0.007400
8.986214 -0.053448 0.001131
7.267095 0.035577 0.008573
19.864570 2.393934 -0.093905
-0.146441 0.004340 0.000682
8.595528 0.083701 -0.000839
15.474629 2.251707 0.012814
18.229273 4.663482 0.001455
20.948328 13.619000 0.032722
13.601594 9.392758 0.018694
0.082320 -0.002334 -0.008353
17.110813 11.990441 0.023962
7.553306 0.221276 -0.006754
26.717931 -3.851245 -0.006856
43.603825 6.281635 0.005745
3.656364 -0.021795 0.002395
8.514675 0.011013 0.027508
18.742358 -14.549267 0.029619
15.648511 -0.572482 0.010371
18.367227 -6.379300 0.019773
9.655615 0.100410 -0.001736
21.969169 2.348878 -0.018434
26.122175 16.356646 0.024639
12.159183 -0.461081 -0.000904
16.725413 -12.942382 -0.033973
0.758624 -0.013596 0.000668
0.104120 0.059248 -0.011500
1.073955 0.152130 -0.000856
5.278559 0.221943 -0.001522
12.647105 -0.111463 -0.000568
14.033253 -0.973028 -0.000807
0.177916 0.008526 -0.045229
37.287943 7.251808 -0.018052
13.382403 -7.694375 -0.012919
39.706807 7.489505 0.012616
19.378812 5.815602 -0.002743
12.296812 -8.869866 -0.025601
43.174555 -7.796417 0.001910
40.335437 7.324422 0.003086
10.553473 -0.061477 -0.032146
17.701399 -1.705827 -0.034456
12.315155 -1.307504 0.001246
1.844562 0.010716 -0.002811
11.686602 -8.298800 -0.007060
0.121337 0.004286 0.000021
14.025563 0.813093 -0.001011
13.196918 9.289939 -0.036165
21.011152 2.038823 -0.002285
0.135456 0.007710 -0.037517
12.851647 -0.090167 0.004422
0.986259 -0.024619 -0.000695
11.705208 -0.193394 0.001689
3.178083 0.007587 0.018409
16.018033 -0.626356 0.017932
16.866161 1.494290 0.010346
8.717801 0.075878 0.022244
37.065492 -6.612763 0.024268
9.020856 1.216451 0.000923
37.581115 8.985227 -0.005034
10.233435 -0.167809 0.003041
7.491725 -0.093615 0.010041
-0.096417 0.020768 -0.004791
20.245179 2.684487 0.036479
16.372098 -0.525060 0.017583
11.852682 -4.905512 -0.008525
15.092515 -1.455570 -0.002914
14.974899 -0.981108 -0.009469
23.120137 15.440049 -0.065675
8.952263 0.025324 -0.046252
5.348199 0.005269 0.000452
12.698933 10.254932 -0.000825
7.575798 0.926614 0.005973
14.298191 -0.996031 -0.003081
32.414563 -14.965123 0.031718
33.015198 11.378928 0.021093
6.085626 -0.009273 0.027702
11.469560 -0.130902 -0.026036
21.851440 6.730651 -0.008598
11.552188 -0.521619 -0.003907
13.936085 -0.800187 0.000634
7.685703 -0.551016 0.029794
11.389885 0.270819 0.002636
39.674184 -9.420717 0.026798
39.961569 9.058798 0.014088
8.772960 0.035692 -0.002196
4.296827 0.013441 0.018320
7.945964 -0.032404 -0.006343
10.477659 -0.181145 0.006329
0.135378 -0.009635 0.020241
7.969678 0.106879 0.000345
18.724076 2.123027 0.009378
9.203047 0.046287 0.005938
24.955324 6.085922 -0.026344
41.269530 7.267443 -0.006429
7.658361 -0.073873 0.005913
17.826328 5.137729 -0.003053
18.177929 2.170267 -0.006645
12.226090 5.557104 -0.011090
9.441872 -0.043627 0.004365
5.317224 -0.004381 -0.052414
0.036979 -0.006757 0.002885
16.042211 -1.177004 0.013514
39.638084 11.496300 0.000170
0.555908 0.020048 0.000071
12.601054 -5.530921 0.004344
15.574753 3.321967 -0.005283
0.338320 -0.003086 0.001923
11.391226 7.022967 0.013357
17.306629 2.248003 0.007337
37.366811 12.346872 -0.008911
16.668325 10.567475 -0.014932
0.079752 0.001963 -0.000030
12.407099 -0.513844 -0.001622
10.611847 0.068012 -0.025114
0.054586 -0.003909 0.027009
17.533691 0.813250 0.013439
12.345310 0.267693 -0.036179
-0.089770 0.000027 0.001007
16.104740 -12.614211 0.005292
4.124442 0.046254 -0.001320
30.019062 6.378343 -0.016364
16.152433 -3.607823 -0.006532
34.341346 -11.032685 0.018529
18.305884 6.004485 -0.002589
0.650283 -0.112698 -0.007745
16.843672 -5.718374 0.024445
38.506208 -11.977413 0.018019
9.401540 -0.013483 0.020640
30.802613 -6.262819 -0.003456
9.574680 -0.145193 0.003843
34.485089 13.141489 -0.022782
20.722766 5.718350 -0.004555
5.195005 0.030412 -0.002601
9.121032 -1.198328 0.005598
5.904075 -0.018373 -0.001744
44.319862 -8.011512 0.004306
-0.181453 0.021005 -0.000091
22.207559 3.656143 -0.004842
19.174249 -1.740874 0.039209
2.387086 -0.002313 0.000683
29.231312 16.302360 0.030484
24.733813 16.076800 -0.019813
29.402403 5.239144 0.022894
20.153115 1.591832 0.007502
12.829174 -0.124202 -0.016447
37.301355 -10.217796 -0.015026
12.620531 -8.562338 0.035936
17.042042 1.309043 -0.007852
20.599951 -8.458199 0.006826
2.340575 -0.034897 -0.020283
31.760923 10.512325 0.009518
6.320499 -0.754552 -0.001724
7.457419 -0.104076 -0.004216
12.296948 7.330885 -0.016589
32.696864 13.354796 0.016340
11.462491 -0.050889 -0.000667
13.912947 6.198062 0.005362
5.215019 0.023161 -0.000156
6.509876 -0.008485 -0.021118
15.312959 -0.635505 -0.001004
15.359083 -1.147109 0.002607
-0.015058 -0.030390 0.006664
4.701401 0.024753 -0.001272
38.738879 -9.349131 -0.011534
3.482484 0.025536 0.001535
2.272843 0.011305 0.003329
15.297899 -10.818098 -0.029614
11.059198 0.369217 -0.002672
11.855633 9.297901 0.010677
9.877631 0.081603 0.006524
5.746003 -0.050236 0.004953
9.354323 0.422718 0.001299
14.896180 -1.788267 -0.017012
17.168019 -1.518297 -0.000845
41.165735 9.463003 -0.015181
13.319618 0.252689 0.005023
12.922855 0.654544 -0.001776
4.276758 0.007931 -0.007365
0.280051 0.002134 -0.019441
0.312238 0.013016 -0.017405
7.532400 0.391179 0.001001
30.424027 15.660876 0.033218
5.989612 0.003246 0.014645
11.231457 0.063139 0.011410
19.228800 1.511497 0.006469
14.848121 -0.196454 -0.000249
10.712590 3.494731 -0.002001
0.110383 -0.000168 0.059108
0.051314 0.006328 -0.003803
-0.018993 0.027179 -0.017645
12.680478 10.312202 0.020724
0.065269 -0.037727 0.019663
28.755776 -5.081122 -0.005212
28.957376 13.740039 0.025881
28.166785 5.193909 -0.004864
24.080828 -3.536227 0.048489
4.625113 -0.006952 -0.009059
9.956080 -2.933193 -0.006550
16.168790 -6.801165 -0.004062
6.292706 0.103568 -0.000253
21.543679 2.927521 -0.020893
0.160716 0.010314 -0.011521
25.866413 -14.223917 -0.049602
17.171705 -3.468376 0.002930
24.835354 -15.850877 -0.023550
12.168880 -7.194861 -0.005793
15.688427 -3.382763 -0.002124
39.014365 -8.737141 -0.012604
17.146875 0.968660 -0.012666
20.168480 8.010522 -0.002160
19.377625 1.972473 -0.042664
22.746825 3.275897 -0.075535
10.710974 -0.185789 0.002617
12.919314 0.156639 -0.002524
14.346432 -0.885883 0.003211
9.158218 -0.195285 0.002482
8.955202 -0.539989 -0.015994
0.401846 0.004152 0.004503
22.969280 5.027267 0.001635
9.760541 -0.121846 -0.069995
10.225707 0.247585 -0.003097
20.838278 -8.542383 -0.012128
34.460489 15.090283 0.008374
17.197398 -0.092128 0.002024
6.616170 -0.030817 -0.002179
11.661204 0.622398 -0.002008
20.374305 -1.803384 0.004103
11.398394 -0.350888 0.015898
10.904819 3.291703 -0.003125
12.423661 -0.052007 0.000691
10.196803 1.305189 0.012852
27.997614 -5.311890 0.002078
15.470262 0.640615 0.001987
36.173767 13.608688 0.014383
10.701009 0.513701 0.000508
12.682732 -0.741936 -0.005311
14.567390 -10.444139 -0.026218
12.242025 0.105045 -0.011433
8.428535 -0.096693 -0.044826