<VTKFile type='UnstructuredGrid' version='1.0' byte_order='LittleEndian' header_type='UInt64'>
<UnstructuredGrid>
<Piece NumberOfCells='500' NumberOfPoints='500'>
<Points>
<DataArray NumberOfComponents='3' type='Float32' Name='Position' format='ascii'>
0.769530 0.642439 0.226858
1.927164 0.318717 0.118195
0.172898 0.979663 0.221600
1.445989 0.886896 0.184644
2.006422 0.772777 0.106364
0.093415 0.192117 0.247923
1.767056 0.213829 0.075276
0.969520 0.868699 0.209669
0.756635 0.644175 0.223751
0.654452 0.781116 0.227439
0.682737 0.230060 0.034861
0.139710 0.007336 0.058419
0.757526 0.552907 0.219496
0.413142 0.253800 0.236850
0.730934 0.721865 0.215445
1.689976 0.916042 0.150318
0.876480 0.251768 0.204044
0.925688 0.946788 0.161562
0.420652 0.793942 0.218578
1.686424 0.089752 0.113541
2.053310 0.240382 0.149626
0.012757 0.100172 0.236461
1.814439 0.766930 0.078582
0.157498 0.991230 0.150446
1.735189 0.903241 0.129152
2.047684 0.745451 0.119795
1.019867 0.482610 0.097784
1.874283 0.295136 0.159888
0.033147 0.847467 0.004242
0.488707 0.935993 0.219481
1.994198 0.718710 0.149733
0.269249 0.311447 0.241859
0.535483 0.962027 0.184538
1.457150 0.829501 0.181652
0.773024 0.965170 0.128550
0.948111 0.713399 0.202065
1.831022 0.227265 0.076481
1.856849 0.115232 0.122930
0.859525 0.619253 0.045982
0.964626 0.063235 0.066976
0.600279 0.085394 0.215869
0.377386 0.289720 0.239691
0.227821 0.293056 0.006522
0.361172 0.038114 0.031268
2.007880 0.710244 0.115067
0.046212 0.525140 0.007910
0.027568 0.126484 0.021065
1.897953 0.751694 0.166486
0.955867 0.951248 0.105967
1.041089 0.799846 0.199496
1.689540 0.882084 0.171488
0.022356 0.668853 0.223906
2.008327 0.295468 0.130869
0.036860 0.848717 0.003604
0.648524 0.476119 0.227478
0.821005 0.344071 0.206802
0.469435 0.858189 0.230436
0.855201 0.424510 0.040615
1.431270 0.946835 0.119464
0.561366 0.046368 0.165689
0.664113 0.237400 0.027306
1.743812 0.869630 0.173197
0.123948 0.993278 0.192633
1.209366 0.816966 0.191221
1.000051 0.790019 0.043801
0.129567 0.723122 0.004016
0.661939 0.377996 0.029808
1.598875 0.932601 0.128222
0.796626 0.089393 0.205431
1.517223 0.064192 0.155814
1.877179 0.149069 0.156725
0.735159 0.459931 0.026755
0.697457 0.965496 0.115050
1.809906 0.866699 0.087619
0.041873 0.652509 0.243754
0.690275 0.590390 0.029397
1.322645 0.835110 0.054640
1.675543 0.782910 0.068098
1.917037 0.712261 0.155126
1.781936 0.683319 0.152366
0.013842 0.206277 0.214481
1.844023 0.682169 0.150990
1.051474 0.948846 0.066892
1.854539 0.115922 0.121014
2.027649 0.788814 0.122788
0.382236 0.253699 0.238997
0.451846 0.965962 0.185460
1.922436 0.297835 0.135135
1.395300 0.045880 0.105119
1.782858 0.213827 0.077404
0.611636 0.593013 0.021613
1.715043 0.911138 0.124740
1.984077 0.690009 0.137310
0.889097 0.182949 0.039178
1.869655 0.319247 0.106247
0.081018 0.613324 0.247744
0.022512 0.558991 0.248477
1.428690 0.888121 0.195827
1.008414 0.894733 0.048077
0.724433 0.130838 0.201176
1.075689 0.135833 0.046539
0.028008 0.986029 0.174384
1.988674 0.836924 0.102397
1.700268 0.310483 0.083119
2.041484 0.819601 0.133527
1.723075 0.770150 0.177983
1.742892 0.322627 0.095190
2.030378 0.211665 0.125291
2.051344 0.818365 0.128576
0.800806 0.041750 0.116084
1.652728 0.080823 0.091788
1.047882 0.261673 0.183887
0.197646 0.908550 0.241053
1.711665 0.332540 0.103985
0.764287 0.727025 0.214471
1.018627 0.832635 0.041335
1.753611 0.678522 0.095272
1.489530 0.936457 0.171910
0.024623 0.993531 0.221424
1.004100 0.493472 0.077106
0.075227 0.043083 0.005779
0.731097 0.293575 0.212030
0.896372 0.941306 0.155424
1.314837 0.037518 0.122927
1.172872 0.837150 0.187721
0.626620 0.902242 0.028417
2.022575 0.188149 0.135854
1.287599 0.818292 0.190693
2.023163 0.803616 0.100864
0.833124 0.098926 0.038166
0.599852 0.161315 0.225383
0.013253 0.502937 0.223843
1.685267 0.905971 0.166731
1.110690 0.041616 0.149107
1.603342 0.259070 0.076550
1.233748 0.150423 0.052158
0.970648 0.297642 0.200159
1.961032 0.683587 0.127085
0.340308 0.984801 0.100351
0.503619 0.490775 0.234669
1.796562 0.657745 0.119560
1.128579 0.848513 0.049765
0.995161 0.214675 0.040223
2.020581 0.271387 0.143559
1.979205 0.772338 0.158915
0.424592 0.969038 0.190372
0.397394 0.018652 0.101089
1.731287 0.805611 0.178897
1.040679 0.174750 0.046927
0.948601 0.220689 0.039176
1.510632 0.072827 0.170215
0.856836 0.897124 0.206371
2.007401 0.237211 0.132114
2.043957 0.792899 0.145899
0.705148 0.961887 0.088802
0.597715 0.960360 0.172949
0.443673 0.038555 0.161584
0.782252 0.408443 0.034559
0.034389 0.568064 0.248884
0.724500 0.574508 0.224394
1.609089 0.793291 0.182094
0.647861 0.953705 0.175819
1.863672 0.847854 0.093188
2.035106 0.799893 0.114166
0.647621 0.133299 0.224532
1.648875 0.787542 0.177234
1.540995 0.891371 0.182338
1.604602 0.720372 0.092884
0.627410 0.045749 0.168223
0.466352 0.032866 0.168716
0.038831 0.987869 0.128569
1.467410 0.092578 0.064488
2.002765 0.755692 0.135449
0.787563 0.730924 0.216043
1.620324 0.278612 0.155424
1.579360 0.788087 0.181726
0.040847 0.985215 0.005368
1.621373 0.700709 0.123055
1.468374 0.835713 0.185626
2.054804 0.758295 0.109029
1.833575 0.694120 0.096515
0.691767 0.870971 0.042499
0.843199 0.285734 0.208499
0.771647 0.946746 0.173057
0.021410 0.015606 0.078205
1.427102 0.947358 0.089193
1.022896 0.944199 0.071389
0.037663 0.988571 0.138638
1.875324 0.327574 0.126482
0.434327 0.784458 0.238402
1.918002 0.830940 0.093342
1.528828 0.193056 0.061760
2.006074 0.222603 0.150129
1.719873 0.754353 0.075042
0.092913 0.878990 0.246951
1.764245 0.198822 0.075126
2.022074 0.220839 0.125137
0.545165 0.043438 0.158742
1.926493 0.188929 0.164556
0.793407 0.111307 0.035765
2.031926 0.750208 0.100893
1.790635 0.793489 0.072245
0.456533 0.900750 0.019027
1.361477 0.133118 0.054899
0.470555 0.031475 0.189511
2.032852 0.230892 0.118425
0.017478 0.158612 0.234697
1.736488 0.861110 0.174492
1.636681 0.078688 0.145241
0.364853 0.477019 0.241881
1.986374 0.714334 0.130036
1.977699 0.696549 0.126766
1.891352 0.864400 0.128027
1.523559 0.942833 0.124895
0.719698 0.084344 0.044243
2.035264 0.224157 0.103852
1.726977 0.308490 0.156979
1.229279 0.840231 0.062506
1.809654 0.259356 0.174092
0.114431 0.026468 0.022662
1.969946 0.785477 0.157902
0.999247 0.303316 0.060412
0.649289 0.140162 0.025558
1.663443 0.686255 0.106107
2.002812 0.754347 0.144586
0.701683 0.043896 0.128886
1.632122 0.744131 0.072660
0.503212 0.535669 0.015473
0.485801 0.025000 0.098433
0.896839 0.355375 0.202885
1.254498 0.114108 0.052551
0.039420 0.708047 0.240566
0.430170 0.597377 0.014154
2.037639 0.183166 0.137945
0.747616 0.058123 0.168365
0.232684 0.969337 0.215358
1.810571 0.317965 0.096722
0.818074 0.642249 0.034696
1.753347 0.673049 0.132340
0.454198 0.930400 0.206048
0.469679 0.110939 0.022045
0.895129 0.708903 0.209599
1.319367 0.200552 0.063941
1.261885 0.194159 0.185760
2.017192 0.772864 0.111412
0.958027 0.500521 0.062469
0.933013 0.742871 0.042669
0.326626 0.979995 0.159780
0.659851 0.112475 0.214488
0.395075 0.210232 0.024285
0.952953 0.747029 0.201387
2.005690 0.712882 0.141472
0.538749 0.976338 0.142050
0.805853 0.957753 0.114671
1.590494 0.933937 0.137458
0.624490 0.406331 0.228866
1.089547 0.749470 0.096858
0.032805 0.994982 0.045856
0.161272 0.792744 0.005177
0.008522 0.621751 0.215489
1.836359 0.694825 0.139515
0.035032 0.621714 0.243484
1.851294 0.121826 0.114282
1.951455 0.749117 0.154026
1.898392 0.859690 0.152044
1.783950 0.111565 0.148539
0.371771 0.393924 0.013398
1.098961 0.248515 0.107443
1.685828 0.266661 0.073267
0.500633 0.781313 0.231881
1.675264 0.904930 0.089862
0.037043 0.189321 0.013822
1.960807 0.273853 0.093803
1.586747 0.219381 0.173467
1.975994 0.287756 0.112192
1.736659 0.297665 0.080831
1.540965 0.218970 0.072758
2.034917 0.195737 0.108191
1.443269 0.949829 0.104135
1.776061 0.769896 0.077722
1.620343 0.911857 0.081784
1.790608 0.869937 0.089826
0.813966 0.097221 0.038155
1.014127 0.953476 0.104681
0.997886 0.252822 0.199158
0.751064 0.172448 0.029319
1.415409 0.066608 0.069270
0.090280 0.964986 0.238516
1.770887 0.857059 0.076207
0.428414 0.744673 0.031384
0.820299 0.891359 0.211735
1.798534 0.261524 0.164707
2.040073 0.728954 0.132857
0.750091 0.475362 0.210877
0.525829 0.064790 0.033975
0.917825 0.741015 0.038191
1.557003 0.064349 0.149036
0.880853 0.145562 0.037868
1.068258 0.733478 0.109966
0.697313 0.485469 0.227320
0.995415 0.572921 0.168895
1.862774 0.142845 0.095491
1.056198 0.891308 0.208045
2.038118 0.748146 0.141266
0.892565 0.709707 0.215093
1.036695 0.164592 0.042945
1.822119 0.319391 0.101922
0.839851 0.959120 0.123698
0.484289 0.142068 0.028841
0.819089 0.939380 0.069763
1.380621 0.138131 0.059819
0.585579 0.487013 0.018080
0.801981 0.936109 0.080140
1.876240 0.126872 0.135173
1.319227 0.047528 0.152082
0.016091 0.508663 0.234890
0.995400 0.205308 0.042727
0.550183 0.311286 0.233184
1.225839 0.954891 0.116995
1.765853 0.703402 0.167979
1.016652 0.820075 0.043162
1.658743 0.817010 0.184475
0.847376 0.665039 0.036309
0.335922 0.981096 0.196123
0.039748 0.425646 0.017250
2.002534 0.716035 0.146029
0.029136 0.373711 0.238827
0.581491 0.061158 0.038396
2.028122 0.221336 0.119898
1.564510 0.214149 0.179905
0.012594 0.515166 0.242454
0.417134 0.436246 0.228714
0.399699 0.036555 0.043547
1.473046 0.062245 0.076743
0.009733 0.606097 0.000817
1.323382 0.054428 0.075958
0.851780 0.591177 0.043627
0.837749 0.676259 0.032647
0.008133 0.280649 0.235545
1.999621 0.750135 0.097444
1.634154 0.835593 0.189519
0.820227 0.554137 0.042338
1.457074 0.059915 0.169168
0.489533 0.964712 0.068125
0.023964 0.131860 0.025042
1.683863 0.285438 0.075204
0.018352 0.890197 0.249514
2.000588 0.799573 0.125313
1.069852 0.747684 0.066031
0.902687 0.612675 0.201586
1.827436 0.257624 0.173970
0.827311 0.091057 0.043562
0.019188 0.982719 0.216107
1.756816 0.319469 0.140835
0.577677 0.903739 0.225879
1.312897 0.765120 0.080399
0.161035 0.009457 0.206790
1.305045 0.955201 0.138511
0.974620 0.898133 0.205831
0.787987 0.910223 0.044492
2.025588 0.792722 0.125310
1.578524 0.060397 0.137427
0.459686 0.953433 0.201805
1.951648 0.790508 0.087035
0.335537 0.027147 0.041436
0.374408 0.020430 0.163782
0.994582 0.433370 0.080259
0.018282 0.746477 0.011013
1.758859 0.155202 0.078051
0.864691 0.207407 0.214304
0.972388 0.491190 0.064082
0.030225 0.533489 0.227488
1.821462 0.285655 0.166481
0.687425 0.869118 0.035645
2.054257 0.245705 0.112442
1.014457 0.448523 0.109693
1.303655 0.940253 0.183041
0.754286 0.123080 0.216533
1.181701 0.195990 0.188990
0.937393 0.953876 0.141490
1.552956 0.070063 0.102243
1.281287 0.064927 0.186380
0.407989 0.035831 0.212093
1.552178 0.073473 0.174505
1.233216 0.244018 0.145313
0.543458 0.956873 0.088216
1.972717 0.799248 0.158415
2.012249 0.715509 0.135389
0.433768 0.977984 0.093509
0.034259 -0.000089 0.183998
1.038788 0.931884 0.057434
0.338333 0.484655 0.008973
1.932480 0.308515 0.104155
1.244210 0.207328 0.189091
1.884042 0.129975 0.133365
0.751257 0.665072 0.028620
0.823813 0.098031 0.209477
0.070876 0.983067 0.021830
1.796491 0.265635 0.079551
0.721136 0.437448 0.220031
1.822256 0.738101 0.167299
0.015605 0.014131 0.082367
1.907792 0.159275 0.097110
0.114095 0.958526 0.017300
1.167774 0.949499 0.076015
0.718211 0.092904 0.207075
0.917486 0.697759 0.206271
1.783203 0.109217 0.149364
1.208696 0.808617 0.194387
2.049318 0.245117 0.121517
0.838821 0.432130 0.207448
1.216241 0.120044 0.049801
0.771907 0.053326 0.174672
0.203502 0.989588 0.170001
1.907114 0.266976 0.089547
0.579122 0.072823 0.033500
1.788628 0.332061 0.142987
1.646249 0.864546 0.175939
0.985375 0.513798 0.183127
1.929310 0.268106 0.090437
1.304454 0.878170 0.053456
0.429941 0.096517 0.018529
0.559366 0.907016 0.219260
1.854998 0.706042 0.088286
0.940389 0.331459 0.197356
0.987388 0.677097 0.058166
1.778589 0.258894 0.074400
0.783306 0.688638 0.223879
1.259795 0.055188 0.162042
2.039833 0.740614 0.110457
1.133418 0.225459 0.070519
0.476910 0.035513 0.193666
1.977837 0.751910 0.148793
1.966460 0.168792 0.105517
1.037084 0.296635 0.133638
0.543020 0.539760 0.015186
0.955428 0.267297 0.200087
1.815450 0.318684 0.094644
1.917751 0.858711 0.141788
0.655798 0.396050 0.024256
1.463728 0.046965 0.120506
1.090216 0.890642 0.044185
2.033033 0.715423 0.127692
1.645676 0.081736 0.090020
1.005496 0.356946 0.111576
1.174591 0.153163 0.048665
1.376035 0.111485 0.195634
1.015380 0.079724 0.201927
1.524115 0.944397 0.111864
0.166155 0.617757 0.003523
0.065100 0.686259 0.248541
1.223388 0.060267 0.182423
0.789588 0.245159 0.030513
1.319485 0.225484 0.077232
0.142969 0.638827 0.012012
0.886758 0.725381 0.043586
0.761824 0.295040 0.220932
1.910739 0.319687 0.131941
1.739769 0.099651 0.153458
0.857760 0.367970 0.209863
0.313929 0.024617 0.040811
0.971020 0.900635 0.044682
1.509254 0.788980 0.178145
0.039991 0.572667 0.014805
0.758455 0.525517 0.218013
0.675920 0.042299 0.160796
0.623696 0.077015 0.212759
1.916961 0.292431 0.159423
0.692471 0.696827 0.020421
1.610652 0.141820 0.182403
0.040447 0.849342 0.000831
0.691393 0.858119 0.221308
0.108532 0.952886 0.012570
0.114855 0.003173 0.208849
1.951422 0.839384 0.099493
0.919052 0.086014 0.199967
0.028320 0.374562 0.239040
0.731949 0.884276 0.035526
1.281702 0.803419 0.193802
1.026939 0.521773 0.126492
0.035716 0.941992 0.001624
1.007133 0.196725 0.206106
0.018597 0.387538 0.244935
1.714150 0.880693 0.078545
0.536423 0.947954 0.052449
1.951169 0.765183 0.090542
0.966216 0.495835 0.061541
0.531053 0.951704 0.052420
0.991615 0.311636 0.059453
0.974531 0.699979 0.202592
0.813698 0.936088 0.090409
0.826251 0.954861 0.108932
0.364654 0.977122 0.072348
0.364229 0.020216 0.057286
0.526179 0.036153 0.174821
1.347931 0.048360 0.159515
1.505562 0.110496 0.185077
0.939370 0.096062 0.199942
1.474798 0.893012 0.185857
2.009141 0.738372 0.125480
</DataArray>
</Points>
<PointData>
<DataArray NumberOfComponents='1' type='Int32' Name='ParticleType' format='ascii'>
1
1
1
1
1
1
1
1
1
1
1
1
1
1
1
1
1
1
1
1
1
1
1
1
1
1
1
1
1
1
1
1
1
1
1
1
1
1
1
1
1
1
1
1
1
1
1
1
1
1
1
1
1
1
1
1
1
1
1
1
1
1
1
1
1
1
1
1
1
1
1
1
1
1
1
1
1
1
1
1
1
1
1
1
1
1
1
1
1
1
1
1
1
1
1
1
1
1
1
1
1
1
1
1
1
1
1
1
1
1
1
1
1
1
1
1
1
1
1
1
1
1
1
1
1
1
1
1
1
1
1
1
1
1
1
1
1
1
1
1
1
1
1
1
1
1
1
1
1
1
1
1
1
1
1
1
1
1
1
1
1
1
1
1
1
1
1
1
1
1
1
1
1
1
1
1
1
1
1
1
1
1
1
1
1
1
1
1
1
1
1
1
1
1
1
1
1
1
1
1
1
1
1
1
1
1
1
1
1
1
1
1
1
1
1
1
1
1
1
1
1
1
1
1
1
1
1
1
1
1
1
1
1
1
1
1
1
1
1
1
1
1
1
1
1
1
1
1
1
1
1
1
1
1
1
1
1
1
1
1
1
1
1
1
1
1
1
1
1
1
1
1
1
1
1
1
1
1
1
1
1
1
1
1
1
1
1
1
1
1
1
1
1
1
1
1
1
1
1
1
1
1
1
1
1
1
1
1
1
1
1
1
1
1
1
1
1
1
1
1
1
1
1
1
1
1
1
1
1
1
1
1
1
1
1
1
1
1
1
1
1
1
1
1
1
1
1
1
1
1
1
1
1
1
1
1
1
1
1
1
1
1
1
1
1
1
1
1
1
1
1
1
1
1
1
1
1
1
1
1
1
1
1
1
1
1
1
1
1
1
1
1
1
1
1
1
1
1
1
1
1
1
1
1
1
1
1
1
1
1
1
1
1
1
1
1
1
1
1
1
1
1
1
1
1
1
1
1
1
1
1
1
1
1
1
1
1
1
1
1
1
1
1
1
1
1
1
1
1
1
1
1
1
1
1
1
1
1
1
1
1
1
1
1
1
1
1
1
1
1
1
1
1
1
1
1
1
1
1
1
1
1
1
1
1
1
1
1
1
1
1
1
1
1
1
1
1
1
1
1
</DataArray>
<DataArray NumberOfComponents='1' type='Int32' Name='ParticleID' format='ascii'>
0
1
2
3
4
5
6
7
8
9
10
11
12
13
14
15
16
17
18
19
20
21
22
23
24
25
26
27
28
29
30
31
32
33
34
35
36
37
38
39
40
41
42
43
44
45
46
47
48
49
50
51
52
53
54
55
56
57
58
59
60
61
62
63
64
65
66
67
68
69
70
71
72
73
74
75
76
77
78
79
80
81
82
83
84
85
86
87
88
89
90
91
92
93
94
95
96
97
98
99
100
101
102
103
104
105
106
107
108
109
110
111
112
113
114
115
116
117
118
119
120
121
122
123
124
125
126
127
128
129
130
131
132
133
134
135
136
137
138
139
140
141
142
143
144
145
146
147
148
149
150
151
152
153
154
155
156
157
158
159
160
161
162
163
164
165
166
167
168
169
170
171
172
173
174
175
176
177
178
179
180
181
182
183
184
185
186
187
188
189
190
191
192
193
194
195
196
197
198
199
200
201
202
203
204
205
206
207
208
209
210
211
212
213
214
215
216
217
218
219
220
221
222
223
224
225
226
227
228
229
230
231
232
233
234
235
236
237
238
239
240
241
242
243
244
245
246
247
248
249
250
251
252
253
254
255
256
257
258
259
260
261
262
263
264
265
266
267
268
269
270
271
272
273
274
275
276
277
278
279
280
281
282
283
284
285
286
287
288
289
290
291
292
293
294
295
296
297
298
299
300
301
302
303
304
305
306
307
308
309
310
311
312
313
314
315
316
317
318
319
320
321
322
323
324
325
326
327
328
329
330
331
332
333
334
335
336
337
338
339
340
341
342
343
344
345
346
347
348
349
350
351
352
353
354
355
356
357
358
359
360
361
362
363
364
365
366
367
368
369
370
371
372
373
374
375
376
377
378
379
380
381
382
383
384
385
386
387
388
389
390
391
392
393
394
395
396
397
398
399
400
401
402
403
404
405
406
407
408
409
410
411
412
413
414
415
416
417
418
419
420
421
422
423
424
425
426
427
428
429
430
431
432
433
434
435
436
437
438
439
440
441
442
443
444
445
446
447
448
449
450
451
452
453
454
455
456
457
458
459
460
461
462
463
464
465
466
467
468
469
470
471
472
473
474
475
476
477
478
479
480
481
482
483
484
485
486
487
488
489
490
491
492
493
494
495
496
497
498
499
</DataArray>
<DataArray NumberOfComponents='1' type='Int8' Name='IsActive' format='ascii'>
1
1
1
1
0
1
1
1
1
1
1
1
1
1
1
1
1
1
1
1
1
1
1
1
1
1
1
1
1
1
1
1
1
1
1
1
1
1
1
1
1
1
1
1
1
1
1
1
1
1
1
1
1
1
1
1
1
1
1
1
1
1
1
1
1
1
1
1
1
1
1
1
1
1
1
1
1
1
1
1
1
1
1
1
0
1
1
1
1
1
1
1
1
1
1
1
1
1
1
1
1
1
1
1
1
1
1
0
1
1
1
1
1
1
1
1
1
1
1
1
1
1
1
1
1
1
1
1
1
1
1
1
1
1
1
1
1
1
1
1
1
1
1
1
1
1
1
1
1
1
1
1
0
1
1
1
1
1
1
1
1
1
1
1
1
1
1
1
1
1
1
1
0
1
1
1
1
1
1
1
1
1
1
1
1
1
1
1
1
1
1
1
1
1
1
1
0
1
1
1
1
1
1
1
1
0
1
1
1
1
1
1
1
1
1
1
1
1
1
1
1
1
1
1
1
1
1
1
1
1
1
1
1
1
1
1
1
1
1
1
1
1
1
1
0
1
1
1
1
1
1
1
1
1
1
1
1
1
1
1
1
1
1
1
1
1
1
1
1
1
1
1
1
1
1
1
1
1
1
1
1
1
1
1
1
1
1
1
1
1
1
1
1
1
1
1
1
1
1
1
1
1
1
1
1
1
1
1
1
1
1
1
1
1
1
1
1
1
1
1
1
1
1
1
1
1
1
1
0
1
1
1
1
1
1
1
1
1
1
1
1
1
1
1
1
1
1
0
1
1
1
1
1
1
1
1
1
1
1
1
0
1
1
1
1
1
1
1
1
1
1
1
1
1
1
1
1
1
1
1
1
1
1
1
1
1
1
1
1
0
1
1
1
1
1
1
1
1
1
1
1
1
1
1
1
1
1
1
1
1
1
1
1
1
1
1
1
1
1
1
1
1
1
1
1
1
1
1
1
1
1
1
1
1
1
1
1
1
1
1
1
1
1
1
1
1
1
1
1
1
1
1
1
1
1
1
1
1
1
1
1
1
1
1
1
1
1
1
1
1
1
1
1
1
1
1
1
1
1
1
1
1
1
1
1
1
1
1
1
1
1
1
1
1
1
1
1
1
1
0
</DataArray>
<DataArray NumberOfComponents='1' type='Int32' Name='ParticleTetID' format='ascii'>
100976
47903
79807
41392
-102510
82905
85072
35405
95349
95136
2591
74251
68571
102110
13055
103081
21750
47423
56789
16598
-12127
101388
49774
63562
9173
-102840
41552
19939
100560
88248
34179
36961
17000
41757
78988
29347
86135
44866
18646
82018
77246
86849
64156
18335
-90119
83524
94294
4523
71409
31679
52547
80251
-25302
100560
64324
92504
63353
50551
25455
105751
2591
7900
25514
29412
53864
97058
105670
43383
47347
98716
91965
38711
44536
15911
80251
96090
4538
3563
56364
36491
99295
43868
65222
44866
-102510
83792
8604
28968
51208
85072
5564
42676
104802
19870
28572
64197
99903
41392
15209
6075
42851
101500
96018
56218
-86274
8236
77268
-98765
-86274
6620
18255
27158
66540
69843
37592
103605
40022
68423
101245
77682
100821
15573
79319
74236
5893
38526
-98765
5587
-17626
24361
12306
100092
103080
89482
37755
22350
16065
46978
59136
57004
669
69674
1766
-12127
70155
5163
75679
35079
31239
28702
98716
7584
-83215
-102510
43861
7717
9138
313
99903
64911
89579
52841
23605
-17626
29532
35337
22580
76247
82688
105715
97137
9388
-102840
42551
10895
25399
101445
5406
37028
-102840
62250
52723
96698
12396
101509
69075
42180
97137
15479
57738
57953
14390
-85990
70897
54109
79133
-83215
71644
32706
88104
-102840
49774
58907
25597
105715
-83215
100903
7900
17908
97543
27587
104802
55089
45120
66349
-69112
24390
11533
5068
82439
52716
44388
54788
15276
-102840
10885
47892
44886
38350
6226
78649
69970
55245
-99021
60897
93885
27912
89759
31292
2068
49829
102380
73825
21172
-102510
19534
19487
13287
23903
9226
50993
-34180
23049
76955
58709
43734
20533
99980
48001
100807
71181
100807
44866
106143
55378
77145
20610
39604
102934
35278
42676
85474
31939
16986
25301
20266
67325
-99021
55164
51776
61911
15911
65089
84966
38510
59600
30897
99871
103213
60093
69331
5068
-34180
91755
8929
19487
105639
8726
37801
104730
94728
46364
4425
-102840
102380
12923
27912
76375
64472
64691
23201
25726
18382
44865
103681
100092
1766
31180
41305
36491
91017
65704
71749
39236
74099
-34180
101063
50938
-83215
17173
100092
81822
2467
61436
101354
13741
102830
71749
98826
98410
64716
23430
39185
16985
94294
9470
71593
-17626
36310
33870
5068
65089
101245
11235
82123
19043
12149
75815
70388
72150
-17626
56362
5163
103014
17383
26446
3379
100743
85710
71488
24330
77116
14708
52723
-83215
61244
87418
3912
64995
47218
83780
53022
39172
7576
9220
4634
52716
-34180
71190
-101044
96735
22748
47903
40389
44865
48397
42483
99809
13158
50289
39540
101509
35494
96089
72701
36906
6614
77145
51643
-83215
26821
58280
43336
39977
32347
66315
39421
24643
70824
31939
50
16130
73016
48284
9098
55002
13007
44983
66334
-102840
4808
105715
102839
24686
96309
103232
21565
66157
55089
79435
52006
11134
-34180
18255
43557
40930
93778
30628
52320
67328
90920
58350
58592
18821
33088
104322
2551
103342
28877
78526
62083
46980
9210
88021
90301
10885
77246
75438
35430
47171
100560
89135
96089
87735
28400
72413
101063
60222
18234
18092
95063
90261
101063
80254
103710
4241
19534
103710
13825
55774
76955
76955
53309
18335
75771
5813
101818
4856
52746
-102840
</DataArray>
<DataArray NumberOfComponents='3' type='Float32' Name='vels' format='ascii'>
11.274450 2.484231 -0.001630
22.475338 2.177966 0.031919
1.934890 -0.023208 -0.016106
35.000021 -1.106597 -0.025248
23.484112 -0.510887 0.083072
0.656416 0.019121 0.004290
24.655575 5.139062 -0.002361
19.730826 5.057444 0.017503
7.611202 1.731805 -0.001632
7.723247 0.819987 0.003319
11.286510 -1.414164 -0.011077
1.610558 -0.007581 -0.015492
7.586818 0.478772 0.007077
1.103256 -0.025484 -0.000065
9.636949 2.068817 -0.009855
20.609430 -1.962998 -0.063987
12.322092 -5.036716 -0.000612
18.966524 1.606794 0.052605
12.468543 0.230500 0.004819
23.414984 2.731165 0.000160
21.835456 0.067503 1.640637
-0.067358 0.038886 -0.002920
20.277535 -3.108933 0.014297
2.160352 0.004826 0.002356
22.316426 -2.761820 -0.022055
22.591256 -0.226395 0.244628
2.725635 0.311888 -0.195078
21.223924 2.885581 -0.034458
0.075055 0.036307 -0.012198
6.103106 0.067545 0.012848
21.849589 -0.744550 -0.254029
2.902782 -0.026362 0.000132
9.908541 0.095658 0.006741
33.588544 -1.792191 -0.001509
17.467763 1.101576 0.003624
11.737510 9.926309 0.069848
20.639872 3.397662 0.011166
20.640896 1.583185 0.008860
9.137030 4.223864 -0.006537
19.624239 -1.882018 -0.101555
8.171121 -0.234767 -0.002009
3.658053 -0.067344 -0.000257
2.267161 -0.015149 -0.001118
3.910582 -0.015572 -0.001738
23.253517 -0.506630 -0.243077
0.029873 0.009008 -0.004130
-0.046294 0.016070 -0.001321
22.298789 -2.040289 -0.069957
19.523119 1.443964 -0.061053
24.010510 10.880816 0.062712
26.049952 -4.781916 -0.059835
-0.041524 -0.028723 0.006475
23.583462 0.705706 0.031841
0.070617 0.048129 -0.013530
6.824895 -0.148816 0.003526
10.952488 -3.898912 0.002449
6.180136 0.172449 0.000072
6.191656 -1.980287 0.008669
29.103212 -0.410337 -0.004227
9.889077 -0.088778 0.007057
15.366207 -1.591867 0.001435
20.483668 -2.890574 -0.032733
1.404788 -0.000442 0.011991
34.221215 1.382938 -0.046947
18.347767 9.627090 -0.043833
1.400805 0.002797 -0.000460
9.107109 -0.902868 0.005585
24.786327 -2.162736 -0.046631
13.553942 -1.282083 0.017739
27.712856 1.592688 -0.050794
20.946346 1.769255 -0.040186
7.058107 -0.656587 0.010724
9.130502 0.156443 -0.018215
20.928571 -2.321151 0.014640
-0.031899 0.006792 0.000300
13.868155 1.188547 0.019298
30.367217 0.349775 -0.013724
20.038473 -7.751764 0.000732
21.816139 -1.993357 -0.091799
21.122007 -5.916816 -0.004274
-0.062845 -0.014699 -0.003824
21.485993 -3.858054 -0.019222
12.842768 0.453670 -0.027903
20.702138 1.611803 -0.002919
21.544261 -0.576351 -0.237666
3.795380 -0.069106 0.000180
7.110200 0.040524 -0.026488
22.868388 1.999399 -0.060471
26.229186 0.067183 0.040794
21.591332 4.379561 0.004098
12.303277 0.611999 -0.016521
21.318874 -2.296850 -0.038495
23.279792 -0.988885 -0.053514
21.038253 -6.571575 0.030150
21.946953 3.119771 0.027693
0.874970 -0.006682 -0.002277
0.301223 0.048462 -0.003611
39.158128 -0.290349 -0.015919
23.252130 4.383743 -0.030962
13.799571 -1.120011 -0.007015
25.362595 -4.515765 -0.009131
0.217998 0.018785 -0.024524
22.698862 -0.390539 0.138108
20.952511 10.121749 0.005724
22.200797 0.725471 -0.532589
22.010465 -6.728178 -0.018467
19.301361 6.109383 -0.007105
23.505890 -0.017541 0.011079
21.587448 0.974728 -0.641169
12.842496 -0.581673 -0.037934
22.558485 2.349623 -0.012104
13.649638 -12.056355 0.398202
1.985150 0.018631 -0.002802
19.742271 9.017088 0.012265
12.463883 2.625911 0.006366
18.161312 7.434789 -0.021526
21.239545 -6.671931 0.006399
28.344889 -1.276156 -0.078160
0.035778 0.005896 -0.018312
2.791934 -0.025094 -0.239117
0.376943 0.010583 0.007962
11.667066 -2.266705 0.001612
15.277676 0.920372 0.034479
22.929115 -0.011463 -0.008312
35.756574 4.342580 0.005622
12.837488 0.541971 -0.029603
23.130137 -0.019389 0.136113
32.239401 -1.045550 -0.048788
21.975496 -0.398811 0.347033
12.591539 -1.464827 0.027831
7.874392 -0.456560 0.000857
0.006816 0.024296 -0.008632
24.285501 -2.831777 -0.011186
23.461799 -0.887647 0.029346
26.058715 13.178277 0.052980
32.228275 -0.193722 0.028037
10.774736 -11.287194 0.160114
22.962087 -1.476551 0.010612
3.428847 -0.017886 0.040570
15.002091 0.047449 -0.001103
21.174347 -5.354393 -0.008871
29.706762 5.424932 0.007722
16.914774 -9.163706 -0.038447
23.086697 0.462772 0.127130
23.002411 -1.036819 -0.148132
6.188090 0.029944 -0.016836
4.320750 -0.011283 -0.007352
22.173593 -5.408555 -0.033610
24.924626 -8.518912 -0.029963
15.636279 -8.141986 -0.017198
28.592776 1.718979 -0.020361
13.471553 1.672607 -0.021925
23.785807 0.531745 -0.031865
21.848852 0.420922 0.793156
10.060365 0.234422 0.020464
8.514331 0.104628 -0.002068
8.304591 -0.005644 -0.006005
8.367228 -1.773631 -0.038152
0.143952 -0.014969 0.022776
7.187653 0.811645 0.000825
29.651381 -8.576766 -0.017183
5.436290 0.064978 0.030210
21.857635 -2.585278 0.017348
23.074533 -0.332614 -0.039117
7.945080 -0.500141 -0.003769
22.373753 -6.931153 -0.015752
26.295634 -4.101696 -0.019443
27.794159 -15.120304 0.057772
9.302488 -0.171054 0.034804
0.020062 0.000005 -0.003331
0.070396 -0.007008 -0.000398
29.404323 1.280211 0.071253
23.744358 -0.623742 0.078356
11.868546 3.311069 -0.001197
24.701044 14.994192 -0.032845
31.021062 -10.124888 -0.030012
0.331493 -0.005391 0.003869
26.087722 -15.795394 0.002485
36.170355 -2.220609 -0.000927
22.731125 -0.410106 -0.267865
21.538024 -4.107166 0.014697
12.366210 0.985323 -0.000165
12.517934 -5.053930 0.002049
13.058726 0.595228 0.050197
-0.066103 -0.001623 0.017690
27.869440 -0.322605 0.014487
21.442954 1.713699 -0.103507
-0.110257 0.000040 0.002363
22.477471 3.234543 0.000179
3.980736 0.080631 0.003059
21.071258 -1.256829 0.115138
28.666211 5.989829 0.030145
22.424382 0.267650 -0.125181
22.360295 -8.447823 -0.001143
8.370040 -0.124884 0.081209
23.148019 4.847151 0.004951
23.805036 0.246133 -0.090822
9.691392 -0.071489 -0.008731
21.055295 1.137353 -0.146904
11.579474 -1.346776 -0.014970
22.916248 -0.253452 -0.514480
21.805578 -4.029515 0.011016
5.021932 0.068014 -0.002122
32.420165 -0.283976 -0.007101
3.949373 -0.016862 -0.010249
23.480659 0.156312 -0.174877
-0.107919 0.030256 -0.001825
8.873464 -1.391161 0.021866
27.902650 3.592323 -0.050529
2.923883 -0.009698 0.000017
21.042956 -0.906231 -0.301699
23.415234 -1.191242 0.069369
21.395690 -1.550508 0.004754
23.583842 -1.140281 0.030498
7.184009 -0.368324 -0.008544
21.410000 0.626257 0.310330
23.161556 8.670884 0.011873
36.479221 0.773531 0.035595
20.174079 4.527859 -0.025321
0.049195 -0.005397 0.000045
21.535000 -1.542426 -0.095715
8.016962 -10.799807 -0.358526
3.452261 -0.230103 0.000607
18.544573 -10.631936 0.005330
23.602854 -0.615112 0.038929
13.152586 -0.409570 0.000216
26.771737 -13.060212 0.031789
5.372383 0.073965 0.000432
5.075003 -0.045401 0.044115
9.049043 -5.693772 0.007410
29.676340 -0.180787 0.003305
0.029690 -0.030789 0.008390
4.961635 0.079910 0.000503
21.328316 0.562810 0.238438
4.665394 -0.039708 0.017610
3.952343 -0.008160 0.002499
21.168602 5.792454 -0.004400
9.055758 3.231180 0.002140
21.525673 -7.460479 -0.022743
6.613664 0.023549 -0.008901
9.661541 -0.117640 0.021086
11.179242 6.633571 0.002863
26.666872 -0.659986 -0.035433
28.661933 1.868558 -0.106024
23.606339 -0.372745 -0.031862
3.703163 0.022638 -0.103935
13.425534 8.368561 -0.019376
0.827418 -0.013770 0.006817
13.898898 -0.442626 0.014660
18.276671 -0.256286 -0.011090
14.890072 9.738315 0.033656
21.838368 -0.661170 -0.191753
5.852608 0.031865 0.018236
12.882009 0.564918 -0.026820
24.939827 -2.084210 -0.046872
6.776847 -0.579588 0.001567
18.383828 11.395584 -0.210392
-0.037009 0.000464 0.032343
1.793054 0.009355 -0.000464
-0.208155 0.039810 -0.004221
21.407203 -3.196338 -0.036420
0.134051 -0.035705 0.024138
20.862693 1.692908 0.023815
20.768015 -1.395828 -0.131414
20.958879 -1.605891 -0.030868
22.341525 2.946235 -0.008132
4.722212 -0.055538 -0.000445
18.699001 -10.275935 -0.118049
21.766896 9.218431 0.012509
11.820730 0.436786 0.002804
20.694045 -2.545600 0.085637
0.015523 0.001609 -0.007009
22.249609 1.819831 0.080224
30.371321 11.154075 -0.032830
21.692166 0.865781 0.283101
24.261014 7.862978 0.007295
34.818225 9.152945 0.043109
22.952633 -0.348073 -0.012363
22.852319 -0.397961 0.038381
21.414387 -5.718319 0.021233
27.650700 -3.590265 0.019204
22.616126 -2.638357 -0.023691
12.071310 -1.265733 0.000142
21.387786 1.435276 -0.048213
14.795706 -11.885170 0.139360
10.212830 -1.545131 0.004064
29.801426 0.427218 0.070104
0.020859 0.002281 0.000176
21.023012 -3.009380 0.008118
10.016393 0.225215 0.000330
12.663932 1.555525 0.033458
19.713941 4.723588 -0.029324
21.937366 -0.464106 0.805875
9.679025 -0.469867 -0.012345
6.894446 -0.042361 0.013739
12.302308 7.206924 -0.005742
25.848537 1.962461 -0.000483
18.598507 -4.429891 -0.001578
13.411353 11.231219 -0.163837
13.208764 -0.047113 0.003109
1.233869 1.698927 0.282394
21.081506 1.889489 0.026152
20.938279 2.939148 0.054498
23.147157 -0.174652 0.127549
5.045638 2.804745 0.004027
22.649250 -7.306968 -0.026172