<VTKFile type='UnstructuredGrid' version='1.0' byte_order='LittleEndian' header_type='UInt64'>
<UnstructuredGrid>
<Piece NumberOfCells='500' NumberOfPoints='500'>
<Points>
<DataArray NumberOfComponents='3' type='Float32' Name='Position' format='ascii'>
0.546712 0.617446 0.227001
1.346948 0.188664 0.118102
0.146326 0.980740 0.223045
0.831777 0.814256 0.185205
1.543580 0.851972 0.106537
0.077192 0.191895 0.247241
1.130814 0.142480 0.074869
0.672643 0.808459 0.209240
0.544678 0.619065 0.224537
0.500808 0.771011 0.227531
0.453372 0.245001 0.035135
0.108756 0.006930 0.058584
0.579315 0.542890 0.219501
0.301332 0.255205 0.237017
0.487790 0.694894 0.215363
1.114915 0.938088 0.150582
0.602666 0.315730 0.203834
0.670034 0.933515 0.160727
0.209548 0.791074 0.219205
1.080554 0.062293 0.112620
1.543195 0.158537 0.146288
0.014157 0.099335 0.236748
1.180914 0.855391 0.078661
0.114340 0.991317 0.149953
1.185557 0.935719 0.130310
1.527096 0.840966 0.118843
0.954983 0.488427 0.100514
1.277781 0.172388 0.159464
0.033024 0.846871 0.003646
0.356922 0.935862 0.219110
1.474231 0.832229 0.151498
0.212055 0.311387 0.241994
0.376589 0.960564 0.184378
0.856406 0.700069 0.180776
0.526374 0.957073 0.127797
0.743686 0.611026 0.202387
1.207622 0.141322 0.076296
1.307063 0.072230 0.123455
0.678580 0.578184 0.046211
0.663667 0.087533 0.068481
0.448553 0.089014 0.215467
0.301140 0.291213 0.238951
0.184966 0.294047 0.006087
0.260532 0.038814 0.032024
1.483786 0.824246 0.115684
0.046800 0.524102 0.007231
0.026785 0.126122 0.021861
1.318486 0.853607 0.165952
0.647383 0.932489 0.106650
0.718277 0.663501 0.198987
1.083042 0.912647 0.171542
0.021379 0.669067 0.222688
1.470971 0.177635 0.132111
0.034951 0.848354 0.004034
0.451400 0.478378 0.227864
0.601836 0.385459 0.206876
0.342815 0.856544 0.230918
0.693239 0.450883 0.039831
0.968037 0.937121 0.119333
0.389093 0.047573 0.165780
0.444311 0.250706 0.027037
1.132595 0.908547 0.173994
0.095366 0.993247 0.192851
0.791058 0.643677 0.190295
0.695571 0.669163 0.044065
0.101879 0.722657 0.004036
0.468903 0.388244 0.029505
1.067546 0.939606 0.128442
0.549354 0.103494 0.204821
0.929352 0.078706 0.155460
1.318724 0.091917 0.156929
0.555004 0.465550 0.027187
0.506175 0.962746 0.114519
1.205748 0.916037 0.086830
0.041720 0.652192 0.243432
0.487833 0.580028 0.028728
0.832993 0.719780 0.055387
1.016428 0.821098 0.067921
1.328202 0.831094 0.155768
1.116325 0.798153 0.151765
0.013397 0.206671 0.215847
1.246914 0.813501 0.150647
0.746441 0.919498 0.068098
1.310148 0.072577 0.120243
1.592782 0.852449 0.122619
0.277602 0.254805 0.239653
0.305566 0.965351 0.185871
1.325806 0.179077 0.134758
0.888587 0.066450 0.105344
1.148374 0.135762 0.077415
0.470178 0.587956 0.021240
1.114359 0.934119 0.124381
1.442329 0.823006 0.137438
0.630094 0.237646 0.039466
1.264395 0.191570 0.106097
0.067795 0.612930 0.248466
0.018210 0.558174 0.248743
0.858759 0.829371 0.195176
0.674405 0.847110 0.048512
0.465796 0.144429 0.201016
0.741968 0.223896 0.047292
0.024421 0.985546 0.175697
1.470734 0.898572 0.101961
1.070494 0.222836 0.082623
1.536268 0.879350 0.134252
1.049678 0.830487 0.177338
1.097074 0.213219 0.094515
1.583591 0.149927 0.125094
1.541563 0.876239 0.130049
0.554259 0.049226 0.116293
1.083123 0.067495 0.091543
0.908327 0.424879 0.178990
0.151247 0.907608 0.241754
1.065933 0.236835 0.103346
0.514001 0.696257 0.215066
0.701311 0.725734 0.041616
1.100694 0.787613 0.095135
1.002513 0.928522 0.171990
0.023476 0.993566 0.221844
0.928622 0.495215 0.080691
0.064469 0.042840 0.005912
0.486308 0.318779 0.212621
0.661285 0.929534 0.154884
0.869490 0.059939 0.122979
0.775976 0.688882 0.187553
0.453321 0.898441 0.028547
1.485912 0.117343 0.135152
0.819778 0.671089 0.191246
1.514416 0.872167 0.099505
0.571820 0.118590 0.038272
0.438618 0.167733 0.226129
0.013801 0.502795 0.224561
1.105072 0.927173 0.166741
0.745970 0.063363 0.149790
0.987906 0.278533 0.077963
0.782426 0.277133 0.051959
0.797468 0.411320 0.198267
1.389373 0.814079 0.126195
0.228826 0.984129 0.099476
0.371694 0.491578 0.234401
1.162647 0.794385 0.120483
0.734549 0.721838 0.049757
0.736474 0.329771 0.040604
1.492044 0.165600 0.143564
1.440403 0.863871 0.159796
0.286060 0.968612 0.191351
0.278284 0.018313 0.101525
1.068774 0.857036 0.180185
0.703548 0.293960 0.046927
0.691125 0.314379 0.038063
0.937067 0.089705 0.170402
0.610412 0.873726 0.205860
1.571688 0.163904 0.132676
1.547791 0.861304 0.144127
0.497759 0.958440 0.088613
0.431244 0.959369 0.172936
0.277646 0.038615 0.161389
0.581950 0.430227 0.034057
0.033107 0.567966 0.249238
0.572355 0.564113 0.224589
0.930535 0.753876 0.180937
0.474072 0.951436 0.175337
1.276242 0.908298 0.091950
1.544429 0.868364 0.113308
0.460508 0.141555 0.223753
0.968066 0.777309 0.177520
0.934665 0.875258 0.182353
0.986204 0.697561 0.094096
0.434401 0.047086 0.167415
0.347512 0.033894 0.168130
0.040085 0.988392 0.127837
0.887962 0.124399 0.064686
1.550669 0.841619 0.135864
0.548347 0.695037 0.216174
0.995063 0.294619 0.154700
0.937414 0.731362 0.181111
0.033672 0.985622 0.006022
1.004624 0.702638 0.123362
0.872896 0.741033 0.185220
1.532739 0.846295 0.109466
1.201963 0.815469 0.096009
0.456181 0.860523 0.042454
0.658763 0.334645 0.208993
0.540841 0.939265 0.171489
0.021989 0.015471 0.078126
0.889086 0.921816 0.089298
0.757244 0.924298 0.072586
0.037902 0.989293 0.138335
1.271317 0.201225 0.125562
0.341994 0.783241 0.238358
1.395572 0.895927 0.091924
0.926619 0.263076 0.061130
1.479640 0.134385 0.150497
1.061744 0.820763 0.074933
0.046385 0.882552 0.247354
1.109852 0.136100 0.074870
1.568861 0.150737 0.125831
0.373860 0.044693 0.157709
1.371156 0.112379 0.165064
0.554300 0.129627 0.035927
1.504109 0.844768 0.101519
1.173202 0.868234 0.072152
0.336943 0.899581 0.019143
0.812819 0.219464 0.054580
0.381960 0.031558 0.189857
1.599841 0.165881 0.118530
0.018543 0.157974 0.235296
1.134816 0.906023 0.174342
1.019083 0.071094 0.144838
0.270040 0.476977 0.241972
1.469554 0.826753 0.131603
1.419736 0.827462 0.126633
1.328077 0.917544 0.128093
0.984163 0.938326 0.124724
0.516125 0.091881 0.045343
1.520796 0.143956 0.103597
1.068673 0.222091 0.156803
0.762214 0.702382 0.062414
1.221236 0.159653 0.173976
0.111862 0.026412 0.023465
1.433470 0.872840 0.158374
0.849943 0.435808 0.062728
0.485182 0.146672 0.025391
1.018154 0.725023 0.106668
1.464910 0.853719 0.144990
0.489054 0.047839 0.127955
0.977205 0.735252 0.073840
0.377216 0.535805 0.014962
0.363444 0.026071 0.097600
0.737217 0.415116 0.202791
0.790842 0.181826 0.052459
0.039495 0.708650 0.239957
0.319882 0.596550 0.013868
1.526404 0.118954 0.137389
0.541991 0.063420 0.167901
0.143462 0.969214 0.214847
1.175849 0.191812 0.097142
0.632762 0.603976 0.035154
1.088651 0.773711 0.132150
0.304631 0.930311 0.205672
0.333615 0.112305 0.021324
0.666138 0.635800 0.209838
0.876775 0.356526 0.065768
0.829689 0.352673 0.185089
1.569768 0.841603 0.112420
0.832869 0.505790 0.063016
0.710752 0.650683 0.043206
0.253601 0.980702 0.159005
0.447307 0.118756 0.213041
0.150674 0.212590 0.024962
0.686416 0.635235 0.200939
1.481310 0.832314 0.142434
0.391498 0.975680 0.141523
0.560249 0.949290 0.115044
1.029268 0.940677 0.136751
0.472851 0.411742 0.229230
0.959946 0.589195 0.101163
0.033064 0.995548 0.045901
0.101523 0.792544 0.005295
0.009663 0.621500 0.216583
1.156715 0.809678 0.139843
0.034000 0.622255 0.243199
1.302427 0.071724 0.114664
1.406478 0.851802 0.154422
1.333445 0.915056 0.151494
1.181568 0.072271 0.149459
0.278171 0.395037 0.013070
0.966838 0.409789 0.110235
1.061138 0.201650 0.073651
0.370160 0.779139 0.231372
1.078987 0.927855 0.088728
0.036541 0.190091 0.014008
1.400688 0.158588 0.092216
0.934821 0.281644 0.172843
1.406409 0.167825 0.111513
1.070548 0.212258 0.080171
0.934816 0.308576 0.074214
1.532729 0.127706 0.108148
0.937293 0.934739 0.104045
1.139741 0.852559 0.077700
1.006325 0.921156 0.081147
1.167961 0.919646 0.089674
0.563231 0.114759 0.038209
0.659489 0.930187 0.104494
0.763675 0.389707 0.198512
0.540399 0.192782 0.028922
0.886152 0.089028 0.069006
0.085460 0.963966 0.238277
1.150879 0.906606 0.075853
0.203585 0.741747 0.031759
0.596867 0.871739 0.211926
1.137736 0.164596 0.164845
1.522770 0.826780 0.130684
0.584385 0.480294 0.211201
0.385815 0.066006 0.034306
0.680133 0.654981 0.037728
0.999411 0.062821 0.147893
0.620760 0.188228 0.037521
0.965761 0.584470 0.112743
0.504783 0.486281 0.227179
0.934923 0.532459 0.164955
1.281392 0.087003 0.094976
0.705558 0.827954 0.207258
1.517275 0.842070 0.140225
0.725959 0.646668 0.215339
0.708170 0.268533 0.042788
1.183057 0.194687 0.101443
0.605162 0.951043 0.124049
0.276832 0.145184 0.029286
0.553196 0.927147 0.069891
0.808424 0.233377 0.059239
0.416714 0.489285 0.017945
0.608094 0.929700 0.080343
1.322758 0.079289 0.135085
0.890731 0.065122 0.151495
0.016544 0.507947 0.234789
0.708824 0.320588 0.042715
0.401499 0.316842 0.232862
0.787211 0.929818 0.117578
1.129092 0.811819 0.168480
0.732154 0.710456 0.042490
1.013887 0.841792 0.184777
0.650356 0.618214 0.036322
0.239852 0.980342 0.195424
0.039284 0.425965 0.017020
1.475094 0.832098 0.147447
0.028966 0.374281 0.239638
0.429186 0.062834 0.038886
1.579373 0.155178 0.119922
0.938199 0.272378 0.179059
0.012564 0.515593 0.242712
0.248721 0.437283 0.228321
0.282914 0.037306 0.043602
0.922611 0.079441 0.075939
0.008184 0.606456 0.000620
0.879887 0.077506 0.076872
0.640922 0.557528 0.043573
0.647237 0.628793 0.032339
0.007306 0.280928 0.235564
1.476500 0.848690 0.096924
0.973231 0.831595 0.189222
0.656092 0.537148 0.042481
0.929083 0.078540 0.169802
0.366206 0.963132 0.067923
0.023434 0.130884 0.025925
1.028169 0.234270 0.075762
0.014304 0.889945 0.248822
1.554776 0.865250 0.125287
0.915969 0.577984 0.071296
0.739385 0.561035 0.201322
1.238849 0.155254 0.173757
0.596429 0.106653 0.043630
0.018852 0.982402 0.216451
1.082172 0.219846 0.140390
0.432667 0.901365 0.225349
0.947269 0.619064 0.083072
0.136888 0.009487 0.206159
0.853018 0.933565 0.137798
0.665665 0.852772 0.205398
0.553610 0.895909 0.044408
1.585485 0.852197 0.123602
1.012544 0.066093 0.137404
0.323771 0.953614 0.201969
1.423281 0.873739 0.085977
0.245929 0.027764 0.041783
0.265304 0.020657 0.163448
0.938606 0.465628 0.084106
0.017138 0.746559 0.011000
1.115418 0.100527 0.077984
0.646533 0.257484 0.214727
0.851825 0.501610 0.064676
0.029900 0.534856 0.227440
1.202342 0.167159 0.165961
0.477899 0.860414 0.035936
1.536511 0.158729 0.114088
0.968622 0.465433 0.111708
0.831512 0.904588 0.182208
0.540697 0.137432 0.216638
0.817374 0.375543 0.187306
0.655964 0.938813 0.141159
1.006698 0.067448 0.102013
0.807811 0.102432 0.185673
0.299174 0.036102 0.211098
0.997190 0.079526 0.174592
0.966308 0.391283 0.142627
0.382296 0.956395 0.088821
1.431473 0.879976 0.157625
1.476041 0.828951 0.136020
0.314733 0.978028 0.093445
0.033585 0.000433 0.183648
0.684391 0.890553 0.057696
0.273375 0.483847 0.008991
1.368823 0.182299 0.103261
0.861361 0.375409 0.186807
1.324017 0.080926 0.133590
0.573779 0.640577 0.028136
0.572498 0.116130 0.209506
0.062474 0.983356 0.021657
1.123933 0.173881 0.079344
0.540106 0.446561 0.219934
1.176758 0.840624 0.168058
0.017555 0.014248 0.081445
1.342960 0.096495 0.097625
0.054484 0.958241 0.017525
0.797737 0.927965 0.077416
0.496835 0.101034 0.207443
0.725758 0.613459 0.206433
1.189559 0.071050 0.149603
0.842888 0.635919 0.192780
1.534944 0.159478 0.121766
0.614942 0.454778 0.206924
0.751551 0.206384 0.050565
0.543215 0.060162 0.174012
0.156546 0.989684 0.169898
1.318692 0.158369 0.088676
0.440466 0.074154 0.033866
1.146380 0.204118 0.143108
1.035822 0.881992 0.176154
0.896124 0.506318 0.180559
1.350135 0.161994 0.089299
0.862580 0.806507 0.053571
0.267667 0.098255 0.018303
0.386583 0.904942 0.218853
1.232914 0.824484 0.088060
0.740083 0.426847 0.196971
0.863097 0.560699 0.061292
1.144917 0.164856 0.073821
0.583024 0.657141 0.223770
0.864018 0.076585 0.161553
1.510929 0.837176 0.111209
0.895911 0.415221 0.074689
0.354267 0.035419 0.194361
1.429916 0.853448 0.148936
1.448421 0.103996 0.104439
0.967513 0.421230 0.132430
0.427747 0.538096 0.015905
0.743926 0.375431 0.199586
1.189256 0.190091 0.095224
1.374236 0.915721 0.141760
0.500459 0.403715 0.024177
0.927385 0.062131 0.120638
0.715616 0.818742 0.044062
1.514181 0.817399 0.128679
1.079261 0.067624 0.089698
0.969251 0.437621 0.113624
0.739879 0.286997 0.048454
0.851509 0.186664 0.195793
0.694933 0.118267 0.201097
1.021802 0.943163 0.111620
0.136397 0.618456 0.004016
0.053633 0.687212 0.247786
0.776737 0.097035 0.181114
0.540731 0.280802 0.031038
0.937853 0.377202 0.080506
0.033894 0.639425 0.012079
0.691789 0.661158 0.043091
0.576587 0.323029 0.221623
1.323444 0.191838 0.132688
1.175781 0.072087 0.154014
0.681944 0.411146 0.209438
0.218676 0.025031 0.041178
0.665505 0.863968 0.044996
0.915689 0.680291 0.176308
0.040326 0.572930 0.014520
0.619612 0.520055 0.217771
0.500095 0.044330 0.160563
0.450452 0.080796 0.213033
1.334923 0.170858 0.159728
0.532487 0.682502 0.020158
0.941994 0.159893 0.182346
0.037813 0.848409 0.001085
0.529376 0.848702 0.221847
0.050768 0.953073 0.013219
0.078737 0.003022 0.208322
1.440149 0.898320 0.098824
0.638761 0.113867 0.199501
0.028559 0.374434 0.238473
0.514494 0.873326 0.035841
0.853925 0.662863 0.192405
0.966740 0.517768 0.126437
0.029762 0.943847 0.001830
0.713424 0.311073 0.205398
0.018987 0.387313 0.244730
1.084003 0.912472 0.077797
0.402255 0.946891 0.053107
1.398784 0.858896 0.090107
0.849948 0.502646 0.063211
0.399632 0.950129 0.052587
0.848594 0.437987 0.062881
0.767064 0.579836 0.201131
0.602845 0.926213 0.089803
0.614426 0.947801 0.109197
0.280039 0.977220 0.071082
0.245307 0.020767 0.057184
0.366204 0.037334 0.175163
0.873799 0.067572 0.158208
0.873257 0.151520 0.185067
0.698910 0.125163 0.200210
0.834546 0.831707 0.186335
1.552849 0.828524 0.124776
</DataArray>
</Points>
<PointData>
<DataArray NumberOfComponents='1' type='Int32' Name='ParticleType' format='ascii'>
1
1
1
1
1
1
1
1
1
1
1
1
1
1
1
1
1
1
1
1
1
1
1
1
1
1
1
1
1
1
1
1
1
1
1
1
1
1
1
1
1
1
1
1
1
1
1
1
1
1
1
1
1
1
1
1
1
1
1
1
1
1
1
1
1
1
1
1
1
1
1
1
1
1
1
1
1
1
1
1
1
1
1
1
1
1
1
1
1
1
1
1
1
1
1
1
1
1
1
1
1
1
1
1
1
1
1
1
1
1
1
1
1
1
1
1
1
1
1
1
1
1
1
1
1
1
1
1
1
1
1
1
1
1
1
1
1
1
1
1
1
1
1
1
1
1
1
1
1
1
1
1
1
1
1
1
1
1
1
1
1
1
1
1
1
1
1
1
1
1
1
1
1
1
1
1
1
1
1
1
1
1
1
1
1
1
1
1
1
1
1
1
1
1
1
1
1
1
1
1
1
1
1
1
1
1
1
1
1
1
1
1
1
1
1
1
1
1
1
1
1
1
1
1
1
1
1
1
1
1
1
1
1
1
1
1
1
1
1
1
1
1
1
1
1
1
1
1
1
1
1
1
1
1
1
1
1
1
1
1
1
1
1
1
1
1
1
1
1
1
1
1
1
1
1
1
1
1
1
1
1
1
1
1
1
1
1
1
1
1
1
1
1
1
1
1
1
1
1
1
1
1
1
1
1
1
1
1
1
1
1
1
1
1
1
1
1
1
1
1
1
1
1
1
1
1
1
1
1
1
1
1
1
1
1
1
1
1
1
1
1
1
1
1
1
1
1
1
1
1
1
1
1
1
1
1
1
1
1
1
1
1
1
1
1
1
1
1
1
1
1
1
1
1
1
1
1
1
1
1
1
1
1
1
1
1
1
1
1
1
1
1
1
1
1
1
1
1
1
1
1
1
1
1
1
1
1
1
1
1
1
1
1
1
1
1
1
1
1
1
1
1
1
1
1
1
1
1
1
1
1
1
1
1
1
1
1
1
1
1
1
1
1
1
1
1
1
1
1
1
1
1
1
1
1
1
1
1
1
1
1
1
1
1
1
1
1
1
1
1
1
1
1
1
1
1
1
1
1
1
1
1
1
1
1
1
1
1
1
1
1
1
1
1
1
1
1
1
1
1
</DataArray>
<DataArray NumberOfComponents='1' type='Int32' Name='ParticleID' format='ascii'>
0
1
2
3
4
5
6
7
8
9
10
11
12
13
14
15
16
17
18
19
20
21
22
23
24
25
26
27
28
29
30
31
32
33
34
35
36
37
38
39
40
41
42
43
44
45
46
47
48
49
50
51
52
53
54
55
56
57
58
59
60
61
62
63
64
65
66
67
68
69
70
71
72
73
74
75
76
77
78
79
80
81
82
83
84
85
86
87
88
89
90
91
92
93
94
95
96
97
98
99
100
101
102
103
104
105
106
107
108
109
110
111
112
113
114
115
116
117
118
119
120
121
122
123
124
125
126
127
128
129
130
131
132
133
134
135
136
137
138
139
140
141
142
143
144
145
146
147
148
149
150
151
152
153
154
155
156
157
158
159
160
161
162
163
164
165
166
167
168
169
170
171
172
173
174
175
176
177
178
179
180
181
182
183
184
185
186
187
188
189
190
191
192
193
194
195
196
197
198
199
200
201
202
203
204
205
206
207
208
209
210
211
212
213
214
215
216
217
218
219
220
221
222
223
224
225
226
227
228
229
230
231
232
233
234
235
236
237
238
239
240
241
242
243
244
245
246
247
248
249
250
251
252
253
254
255
256
257
258
259
260
261
262
263
264
265
266
267
268
269
270
271
272
273
274
275
276
277
278
279
280
281
282
283
284
285
286
287
288
289
290
291
292
293
294
295
296
297
298
299
300
301
302
303
304
305
306
307
308
309
310
311
312
313
314
315
316
317
318
319
320
321
322
323
324
325
326
327
328
329
330
331
332
333
334
335
336
337
338
339
340
341
342
343
344
345
346
347
348
349
350
351
352
353
354
355
356
357
358
359
360
361
362
363
364
365
366
367
368
369
370
371
372
373
374
375
376
377
378
379
380
381
382
383
384
385
386
387
388
389
390
391
392
393
394
395
396
397
398
399
400
401
402
403
404
405
406
407
408
409
410
411
412
413
414
415
416
417
418
419
420
421
422
423
424
425
426
427
428
429
430
431
432
433
434
435
436
437
438
439
440
441
442
443
444
445
446
447
448
449
450
451
452
453
454
455
456
457
458
459
460
461
462
463
464
465
466
467
468
469
470
471
472
473
474
475
476
477
478
479
480
481
482
483
484
485
486
487
488
489
490
491
492
493
494
495
496
497
498
499
</DataArray>
<DataArray NumberOfComponents='1' type='Int8' Name='IsActive' format='ascii'>
1
1
1
1
1
1
1
1
1
1
1
1
1
1
1
1
1
1
1
1
1
1
1
1
1
1
1
1
1
1
1
1
1
1
1
1
1
1
1
1
1
1
1
1
1
1
1
1
1
1
1
1
1
1
1
1
1
1
1
1
1
1
1
1
1
1
1
1
1
1
1
1
1
1
1
1
1
1
1
1
1
1
1
1
1
1
1
1
1
1
1
1
1
1
1
1
1
1
1
1
1
1
1
1
1
1
1
1
1
1
1
1
1
1
1
1
1
1
1
1
1
1
1
1
1
1
1
1
1
1
1
1
1
1
1
1
1
1
1
1
1
1
1
1
1
1
1
1
1
1
1
1
1
1
1
1
1
1
1
1
1
1
1
1
1
1
1
1
1
1
1
1
1
1
1
1
1
1
1
1
1
1
1
1
1
1
1
1
1
1
1
1
1
1
1
1
1
1
1
1
1
1
1
1
1
1
1
1
1
1
1
1
1
1
1
1
1
1
1
1
1
1
1
1
1
1
1
1
1
1
1
1
1
1
1
1
1
1
1
1
1
1
1
1
1
1
1
1
1
1
1
1
1
1
1
1
1
1
1
1
1
1
1
1
1
1
1
1
1
1
1
1
1
1
1
1
1
1
1
1
1
1
1
1
1
1
1
1
1
1
1
1
1
1
1
1
1
1
1
1
1
1
1
1
1
1
1
1
1
1
1
1
1
1
1
1
1
1
1
1
1
1
1
1
1
1
1
1
1
1
1
1
1
1
1
1
1
1
1
1
1
1
1
1
1
1
1
1
1
1
1
1
1
1
1
1
1
1
1
1
1
1
1
1
1
1
1
1
1
1
1
1
1
1
1
1
1
1
1
1
1
1
1
1
1
1
1
1
1
1
1
1
1
1
1
1
1
1
1
1
1
1
1
1
1
1
1
1
1
1
1
1
1
1
1
1
1
1
1
1
1
1
1
1
1
1
1
1
1
1
1
1
1
1
1
1
1
1
1
1
1
1
1
1
1
1
1
1
1
1
1
1
1
1
1
1
1
1
1
1
1
1
1
1
1
1
1
1
1
1
1
1
1
1
1
1
1
1
1
1
1
1
1
1
1
1
1
1
1
1
1
1
1
1
1
1
1
1
1
1
</DataArray>
<DataArray NumberOfComponents='1' type='Int32' Name='ParticleTetID' format='ascii'>
22283
22655
94199
64342
75548
88115
10871
67257
22283
51369
70182
74251
11050
17735
891
40213
19717
20677
57255
105991
24184
101388
80882
41443
7655
63441
14943
49917
100560
81336
67653
16377
77068
6374
102817
12213
27789
63029
22863
54159
66097
96031
20997
27297
59908
83524
94294
41536
4183
90992
58236
80251
6217
100560
63869
33859
8435
87624
89860
8496
70182
29861
25514
49941
14701
87437
23879
5565
104156
89550
8340
64122
102817
51780
80251
7338
10758
2970
12460
17453
99295
26812
2524
64786
10928
84709
20471
21440
7911
39828
92155
40213
105456
2888
68772
64197
99903
60741
33687
2422
34761
101500
17520
29779
12216
241
13640
77919
12216
76436
54469
32453
65512
59429
18920
53733
5337
77491
101245
14031
31131
21989
20677
7911
52294
58907
16476
15512
2065
47873
51582
100092
25135
50309
71856
1992
79085
102929
310
37075
93831
69856
29876
6067
22702
20471
105346
7454
27874
9894
34489
14660
45196
93051
20957
8604
70080
72074
99903
45677
45212
53079
59047
69359
2422
5588
2706
57
58338
41553
97137
103686
74554
52766
24007
38421
101445
10675
32994
63441
3322
64161
10580
32926
101509
68657
2524
97137
5050
11625
102361
14243
23979
82827
71593
9187
77919
26446
6404
50528
85200
80882
87056
103978
14058
49735
100903
29861
2411
7414
51458
47955
82600
69179
49427
65120
44631
25282
103193
82439
22702
32118
64472
66240
76517
17995
71891
9458
42004
29227
32657
69970
28621
94524
65951
764
49906
44700
53806
106070
90270
23592
104280
26657
85557
1413
63105
95343
32799
80740
23592
81168
25226
6641
39761
71413
38002
99980
27661
100807
35215
100807
64786
45752
43856
18077
58412
88254
23518
35269
103224
85474
50113
40871
65620
33669
33924
65120
28489
44716
42319
17274
47873
69508
8568
79197
103686
69708
40548
18706
14660
24412
29554
15105
3010
14701
708
72673
10642
57004
10932
25821
66881
60453
68540
46772
49906
6062
71449
4634
79796
22641
4183
63029
35370
100092
29240
21038
78879
69254
103876
13209
23267
97319
74099
71140
101063
59816
77919
21565
100092
20548
63045
103662
101354
34558
17350
23267
98826
84976
59939
17350
89550
40470
94294
24012
71593
74554
18206
34984
103195
105201
101245
20034
30108
77262
71307
64385
87183
8713
10928
2411
39236
77384
27297
84817
37957
100743
41490
36498
1319
77116
8104
31203
43971
6661
17573
94075
1387
35124
11891
12187
77785
35854
95799
51677
22702
43582
74954
101043
49224
6132
10789
65287
63029
4180
78581
99126
14401
65794
21139
101509
11387
94926
18382
876
69209
18077
12346
43971
73092
34761
65951
63562
24102
82153
47193
10557
2569
51829
40456
97934
104895
64301
63555
40314
91824
82180
22183
69698
11269
16838
34032
15014
27133
49792
102883
49906
43856
92762
103663
25511
46320
54469
37396
14348
13859
3330
64284
33088
90920
12187
60095
10186
76206
14701
19069
7910
8204
44224
22635
41411
14836
88021
17709
23527
83434
56106
94693
43909
100560
70507
94926
90466
78465
13074
101063
56090
13211
31061
95063
66528
101063
103224
35593
45980
1319
35593
32118
4195
4183
7964
20441
57454
26446
35370
41177
36906
64342
63378
</DataArray>
<DataArray NumberOfComponents='3' type='Float32' Name='vels' format='ascii'>
7.755468 0.318525 -0.000727
41.220013 0.360377 -0.002731
4.869851 0.062607 0.017662
9.365554 2.767272 -0.032956
42.845234 -6.126608 0.001587
0.896659 0.027078 0.004485
37.145299 -7.795960 -0.016172
14.811572 1.394843 -0.010133
8.106427 0.331037 -0.000342
16.653329 0.579034 -0.000401
15.552545 -0.372738 -0.000817
1.388153 -0.000112 -0.008049
9.441998 0.213444 0.001430
4.132579 -0.052083 -0.000275
4.163226 0.160234 0.001235
33.784915 1.725256 0.081447
16.634042 -1.070625 0.002859
13.893104 0.484881 0.031091
15.342549 0.059907 0.087266
32.245118 -3.443442 -0.002705
44.026918 6.449644 -0.004770
-0.073262 0.037699 -0.002335
40.479804 4.804724 -0.000107
1.703150 0.005081 -0.000098
34.477216 0.617098 0.060437
45.823320 -4.963177 -0.009545
4.642928 -0.567640 -0.064173
42.869325 0.721105 -0.046601
0.095816 0.034246 -0.012657
9.930461 0.046794 0.000792
44.868284 -1.895494 -0.004254
2.815689 -0.012974 -0.000338
7.354793 0.026641 0.004205
15.085464 7.222398 0.007090
7.971303 0.060889 -0.002480
13.642894 2.720150 -0.014923
38.320512 -2.148015 0.008823
41.059586 0.042133 0.003482
12.666617 0.950408 0.012904
14.217454 -0.622186 -0.008669
9.738602 -0.081190 -0.000526
3.963500 -0.047217 0.000119
2.110176 -0.011299 -0.000171
3.893793 -0.008678 -0.021267
46.657973 -3.308525 -0.013919
0.071408 0.008685 -0.003595
-0.030061 0.018613 -0.001298
43.029617 -0.440728 -0.007009
9.022723 0.178288 0.013185
11.887723 2.173002 -0.016610
28.730977 2.424148 -0.062706
0.092744 -0.030577 0.010710
46.497733 1.097257 0.007013
0.006086 0.048791 -0.009911
7.436115 -0.068708 -0.000990
2.125991 -0.180493 -0.003247
5.589594 0.036173 0.002058
11.879079 -0.665098 0.009009
22.132098 2.324694 -0.066937
8.617335 -0.072144 0.023320
8.876610 -0.263835 -0.002875
33.749197 3.240712 0.021554
1.507605 0.006158 -0.005780
9.958816 3.177056 -0.009744
12.946204 2.047682 0.021493
1.406033 -0.006060 -0.003087
9.593747 -0.211245 -0.000728
29.276417 2.674477 -0.012636
12.011604 -0.246373 0.012732
23.784225 -2.971991 -0.041844
38.651521 0.031545 -0.029410
8.919682 -0.097719 -0.000167
7.740019 0.048414 0.002361
36.361295 1.197353 -0.004277
0.044563 0.007554 0.000753
9.717020 0.185963 0.002811
15.485200 5.566420 0.001467
27.885966 11.536182 -0.035003
42.597527 -0.692978 -0.018576
31.172136 13.645405 0.128707
0.077241 -0.003210 -0.007499
43.683184 0.565227 -0.041503
15.288652 1.069652 -0.002825
36.509454 0.009136 0.036548
38.998221 -8.053055 0.001638
3.713499 -0.042632 0.000303
6.257235 0.012959 -0.009385
43.012411 0.731965 -0.006080
16.671886 -1.110519 0.012901
38.989492 -6.113447 -0.017808
7.051105 0.136654 0.001102
29.578603 1.638447 0.056283
45.287263 0.628334 0.010298
15.423923 -1.105894 0.002192
43.633665 0.763678 0.048070
0.567618 -0.000746 -0.001199
0.174168 0.056472 -0.009897
16.202398 4.506953 -0.004184
12.708505 0.989219 0.000073
12.813782 -0.257239 -0.005547
14.626367 -2.541988 0.007612
0.276503 0.013488 -0.049040
34.398077 -0.882785 0.018338
24.201665 -14.478605 -0.232722
42.322717 -4.087853 -0.012022
27.488625 9.099110 0.028244
29.082704 -15.185911 -0.145628
39.942241 7.270421 0.019981
41.697799 -4.401206 -0.006754
5.017125 -0.038591 -0.022237
25.624544 -2.052602 -0.067138
8.205215 -3.886979 0.034251
2.214394 0.026395 -0.003195
23.190833 -16.621204 -0.077897
10.599384 0.446965 0.001643
12.450891 1.840575 0.001201
28.359994 13.975950 -0.155156
24.362676 2.757647 0.033918
0.042886 0.005827 -0.021318
6.137360 -0.656350 -0.051728
0.938687 -0.019017 -0.000370
6.203009 -0.205815 0.000235
5.493872 0.048891 0.012910
18.574526 -1.418214 -0.030564
1.759320 0.493095 -0.001110
6.715457 0.084926 0.004418
37.491152 1.738278 -0.010618
12.949585 4.570656 -0.008057
42.433358 -3.194315 0.003762
12.789290 -0.346779 0.018900
8.981503 -0.176501 -0.008776
-0.036672 0.022668 -0.006762
29.641164 2.985272 0.017817
8.176808 -0.203213 0.011407
14.219156 -13.847336 -0.189711
15.301737 -3.716908 -0.021421
11.444402 -2.432746 -0.012019
41.500325 2.020658 -0.003387
3.801769 -0.007221 0.010189
12.605649 -0.013527 0.000681
37.039395 9.237276 -0.007438
6.391825 1.082577 -0.007209
11.782428 -2.302169 -0.006371
45.468388 3.466050 0.018027
42.967677 -0.334926 0.007422
5.574322 0.013867 -0.008348
4.478502 -0.011444 -0.011888
33.255744 9.350912 0.019650
12.869461 -1.924262 -0.002110
11.617330 -1.657504 -0.013777
23.600326 -3.439237 0.062886
10.767554 0.466516 0.021799
41.232732 7.902683 0.010291
43.368544 -5.247562 -0.015710
11.828504 0.121248 0.026107
7.778677 0.041278 -0.030474
8.119423 -0.000960 0.002539
7.949411 -0.250675 -0.000942
-0.064201 -0.002781 0.011308
12.090404 0.339111 0.000651
19.193039 10.605828 0.028426
9.484062 0.074096 -0.003191
38.642073 0.123923 -0.019452
41.583755 -5.151494 -0.001490
7.654362 -0.155308 0.008330
18.886435 13.347405 0.077676
23.395056 4.574589 0.024640
11.420463 13.750367 -0.168761
9.427803 -0.058615 0.012111
10.919278 -0.063949 0.008771
-0.068584 -0.003309 0.007582
21.477884 -4.305910 -0.025588
43.655602 -6.547576 -0.012783
16.874540 0.992386 -0.005437
11.330283 -13.622454 0.210302
17.635790 12.178632 0.042711
0.385986 -0.005179 0.002786
9.878855 13.148642 -0.123372
23.100799 8.360222 0.001751
46.018340 -5.216088 -0.010009
42.007638 4.840259 0.020838
0.735161 0.018412 -0.000329
5.530133 -0.701561 -0.003526
11.546826 0.113634 -0.012064
-0.049048 -0.002141 0.017724
19.823450 1.948536 -0.053280
14.895040 0.903383 -0.015086
0.130825 -0.002009 -0.013366
43.012926 1.559967 -0.003594
4.016490 0.057765 0.002113
40.044957 0.133626 -0.030023
18.456337 -10.034460 -0.011769
43.784655 2.644909 -0.007754
34.138382 12.301540 -0.035222
0.608940 -0.146507 -0.018596
33.425549 -7.201144 -0.011179
41.609956 6.923257 0.016853
5.516175 -0.043747 0.051617
40.098532 -0.113648 0.012556
10.597671 -0.444755 -0.009289
46.913480 -3.622406 -0.007092
40.710232 3.844037 -0.004847
4.912528 0.032569 -0.002418
16.777983 -4.417482 -0.011116
6.107922 -0.013943 0.014877
39.237830 8.085305 0.013499
-0.013938 0.038023 -0.001837
34.125116 3.330705 0.019996
13.936111 -0.489276 0.062660
2.893398 -0.006912 -0.000478
47.196141 -1.214519 -0.006964
45.515887 1.024739 0.002766
40.869197 -0.003028 -0.006428
24.398696 2.415506 0.002930
11.287965 -0.166919 -0.001566
45.358060 3.870347 0.002895
24.822591 -15.681554 0.174539
8.774966 2.414049 0.000660
38.981752 -1.821364 -0.016777
0.396662 -0.004957 0.000409
43.201894 -0.368427 -0.008412
9.166428 -2.473853 -0.007431
17.474625 -0.380216 0.013139
12.178175 14.325800 -0.125716
43.827012 -0.817537 0.018116
10.577779 -0.092989 0.008302
13.939634 11.759624 -0.111909
5.210900 0.041324 0.000293
2.197158 -0.017638 -0.030537
11.055500 -1.585786 0.005627
17.056102 -4.000465 -0.014060
-0.037845 -0.029096 0.006476
4.885409 0.031433 -0.000175
41.511201 3.755665 0.035087
11.722547 -0.151320 -0.018504
4.764075 0.047573 0.029381
39.571125 -7.622646 -0.020743
10.457550 0.744624 -0.002204
25.562713 15.013504 0.058690
2.535044 -0.002053 0.003085
7.886470 -0.059796 -0.003428
12.412649 1.121565 0.011851
12.515111 -6.646953 0.006107
14.289610 -4.984252 -0.006360
39.752251 -7.027370 0.013637
10.667122 -0.464372 0.009845
12.312706 1.867257 0.001531
4.566670 -0.005030 0.011331
9.645175 -0.161760 0.000762
7.948394 -0.011392 -0.015630
16.470191 1.630932 0.005988
46.422289 -1.995424 -0.001802
5.921181 0.025423 -0.007846
12.321552 0.152822 -0.014197
28.275996 2.968334 -0.007218
10.867089 -0.177755 -0.000985
5.455904 4.020750 -0.085129
0.004746 0.000326 0.040753
1.828015 -0.007605 -0.005347
-0.010626 0.030075 -0.018263
37.681534 11.130477 0.042362
0.163031 -0.035568 0.026579
37.739506 -0.036820 0.063122
40.394167 0.696553 0.022662
37.217439 0.037189 -0.012929
35.014748 -1.895967 0.038512
4.584776 -0.033768 -0.000459
4.311805 -4.912450 -0.079678
27.506320 -13.951765 -0.121486
0.860720 0.010528 -0.004686
30.154568 2.909705 -0.036310
0.048031 0.003219 -0.008075
43.104503 -0.797930 -0.032397
16.586701 -11.460823 0.044523
44.637882 -1.119619 -0.019866
27.198856 -13.285653 -0.111511
13.738019 -11.338066 -0.068231
43.945145 3.469906 0.031709
22.169969 2.256650 -0.064100
40.366707 9.777741 -0.019085
26.354382 3.924468 -0.067042
32.561216 1.635322 0.016560
11.142756 -0.307367 0.015055
9.773704 0.227994 0.025643
11.914623 -2.344529 0.002044
9.186279 -0.368279 0.004025
19.374829 -2.306269 -0.013159
0.275644 0.003692 0.003154
30.469567 1.367100 -0.029766
10.068975 0.041746 -0.019173
10.915886 0.477921 0.017438
38.483333 -10.030063 0.043784
46.300699 -5.357263 -0.003421
9.417120 -0.085718 0.013883
6.735145 -0.037334 0.006519
11.303694 1.416829 -0.005162
26.807180 -3.276120 0.046262
14.698197 -1.000959 -0.002464
4.365222 4.565948 -0.061395
7.599391 -0.027031 0.001422
6.827388 2.002799 0.042055
36.470241 -0.107609 0.001907
16.175933 1.661321 -0.004209
45.932352 -4.278274 -0.005527
16.454518 2.529201 -0.001426
13.094589 -2.023694 0.009295
40.427510 -7.174989 -0.009229
11.402429 0.179430 0.017252