<VTKFile type='UnstructuredGrid' version='1.0' byte_order='LittleEndian' header_type='UInt64'>
<UnstructuredGrid>
<Piece NumberOfCells='500' NumberOfPoints='500'>
<Points>
<DataArray NumberOfComponents='3' type='Float32' Name='Position' format='ascii'>
0.664095 0.624649 0.226677
1.702255 0.275930 0.118042
0.159155 0.980220 0.222165
1.095990 0.884205 0.184784
1.830653 0.784927 0.106215
0.086300 0.192243 0.247659
1.502919 0.149438 0.074726
0.824751 0.833431 0.209287
0.663770 0.626725 0.224611
0.574871 0.775342 0.227628
0.558183 0.241276 0.035181
0.123605 0.006932 0.058754
0.666184 0.546015 0.219119
0.376253 0.254300 0.237399
0.617939 0.703469 0.215353
1.430506 0.938913 0.150360
0.738883 0.297013 0.204164
0.791856 0.938988 0.161222
0.305710 0.791771 0.218814
1.395491 0.062134 0.113418
1.823590 0.227798 0.146213
0.013787 0.099551 0.236766
1.570625 0.830914 0.078110
0.135869 0.991399 0.150272
1.472490 0.932522 0.128960
1.816229 0.760180 0.118649
0.992230 0.482638 0.099142
1.652408 0.236473 0.159834
0.033129 0.847019 0.004260
0.419267 0.935345 0.219051
1.771029 0.741272 0.151199
0.240374 0.311366 0.241852
0.454678 0.960996 0.184169
1.088030 0.821615 0.181378
0.638664 0.959149 0.128392
0.834343 0.638186 0.202033
1.592726 0.168023 0.076521
1.632197 0.091165 0.123277
0.771469 0.590219 0.045925
0.774595 0.081572 0.067963
0.530328 0.087193 0.215822
0.339691 0.290492 0.239056
0.206030 0.293788 0.005975
0.306901 0.038226 0.031954
1.777104 0.732990 0.115391
0.046756 0.524823 0.007660
0.027410 0.126102 0.021381
1.677667 0.796907 0.166165
0.776614 0.937938 0.106242
0.855492 0.707390 0.199210
1.391200 0.917097 0.171652
0.022258 0.668721 0.223450
1.773877 0.270028 0.131258
0.035902 0.848779 0.003876
0.525610 0.477820 0.227377
0.697589 0.376328 0.206689
0.410472 0.857560 0.230647
0.788311 0.441174 0.039763
1.235862 0.947632 0.119627
0.462353 0.046684 0.165445
0.535506 0.247074 0.027089
1.495435 0.905241 0.174253
0.110020 0.993165 0.192796
0.937968 0.726401 0.190700
0.841603 0.706862 0.044221
0.115310 0.723235 0.003783
0.566865 0.385184 0.029723
1.314176 0.944048 0.128370
0.663672 0.099551 0.204760
1.217332 0.058326 0.156034
1.654177 0.122796 0.157093
0.638933 0.463654 0.026977
0.602784 0.963933 0.114665
1.559209 0.903978 0.087082
0.041737 0.652533 0.243573
0.569972 0.583002 0.028915
1.023146 0.806476 0.055382
1.381255 0.850685 0.068215
1.691635 0.757361 0.155664
1.525091 0.783561 0.152273
0.013161 0.206514 0.215475
1.622731 0.751331 0.150665
0.897228 0.938048 0.067492
1.630968 0.091247 0.120505
1.863396 0.796820 0.122470
0.344371 0.254173 0.239431
0.382975 0.965667 0.185515
1.700013 0.258046 0.134879
1.128088 0.046771 0.104605
1.512940 0.148121 0.077565
0.555430 0.590475 0.021435
1.451955 0.934633 0.124707
1.756842 0.717855 0.137341
0.755904 0.218711 0.039220
1.645342 0.256855 0.106258
0.073401 0.613116 0.248038
0.019639 0.558565 0.248428
1.103882 0.884278 0.195590
0.809452 0.863788 0.048713
0.602395 0.139380 0.201259
0.873095 0.187536 0.047141
0.026312 0.985570 0.175333
1.766225 0.852584 0.101901
1.424104 0.202759 0.082522
1.815808 0.828568 0.134405
1.440866 0.845094 0.177948
1.488330 0.212247 0.094922
1.857394 0.203903 0.125072
1.821391 0.827593 0.129782
0.674262 0.047075 0.116756
1.379724 0.063312 0.091878
0.968220 0.363681 0.179984
0.177636 0.908129 0.241361
1.433782 0.212485 0.103197
0.645971 0.706227 0.214729
0.852033 0.765293 0.040983
1.481027 0.791302 0.094949
1.226707 0.940141 0.172057
0.023832 0.993831 0.221660
0.974019 0.494618 0.079637
0.071516 0.042700 0.005826
0.614059 0.310734 0.212755
0.769781 0.933801 0.155007
1.085110 0.039975 0.123030
0.907306 0.745589 0.187507
0.541338 0.899460 0.028277
1.792373 0.175395 0.135887
0.979986 0.767496 0.191092
1.795758 0.819001 0.099790
0.713487 0.111269 0.038354
0.522108 0.165239 0.225751
0.014166 0.503140 0.223991
1.421321 0.930810 0.166696
0.907647 0.053278 0.149298
1.285869 0.208287 0.077087
0.947584 0.207193 0.052040
0.886012 0.376568 0.198485
1.730611 0.720887 0.126317
0.287452 0.984353 0.099819
0.416793 0.490838 0.234484
1.563594 0.756726 0.120651
0.890183 0.771391 0.049891
0.860728 0.286360 0.040117
1.791200 0.251547 0.143575
1.750106 0.798484 0.159894
0.360895 0.968827 0.190852
0.356641 0.018512 0.101302
1.450703 0.866655 0.179202
0.840841 0.255169 0.046536
0.806819 0.287791 0.038572
1.220749 0.066743 0.170622
0.721839 0.880382 0.206139
1.832190 0.225644 0.132800
1.815469 0.803986 0.144166
0.604030 0.959375 0.088701
0.511402 0.960127 0.173029
0.362566 0.038301 0.161711
0.672304 0.424371 0.034653
0.033235 0.568214 0.248804
0.650557 0.568580 0.224912
1.250321 0.830761 0.181874
0.560426 0.952482 0.175529
1.627988 0.881973 0.092701
1.806353 0.813543 0.113421
0.560878 0.138201 0.223936
1.321690 0.842739 0.177299
1.226172 0.907430 0.182574
1.262606 0.782790 0.092985
0.528295 0.046985 0.167877
0.428235 0.033061 0.168071
0.038963 0.987917 0.128391
1.153219 0.088735 0.064112
1.826342 0.768554 0.135347
0.674239 0.707308 0.216299
1.277593 0.215782 0.155556
1.235219 0.821044 0.181664
0.037868 0.985522 0.005759
1.285983 0.770907 0.123229
1.119126 0.834864 0.185739
1.823439 0.773468 0.109384
1.601841 0.771831 0.096395
0.569952 0.863043 0.042002
0.758593 0.315441 0.208951
0.663193 0.942385 0.172222
0.021324 0.015343 0.077880
1.144674 0.947171 0.088955
0.893551 0.934234 0.072736
0.038244 0.988689 0.138857
1.647255 0.266399 0.126363
0.381709 0.783556 0.238383
1.692649 0.858972 0.092412
1.196744 0.173183 0.061196
1.779096 0.201098 0.150745
1.457452 0.837237 0.075041
0.064133 0.879805 0.246675
1.496077 0.138083 0.074670
1.848908 0.209778 0.125485
0.451609 0.044047 0.158271
1.707642 0.160335 0.164915
0.655087 0.124590 0.035812
1.804474 0.766586 0.101340
1.536495 0.853114 0.072091
0.394037 0.900144 0.019443
1.021261 0.152527 0.054735
0.436141 0.031160 0.189372
1.864930 0.224251 0.118252
0.018460 0.158374 0.234979
1.495674 0.902609 0.174827
1.330146 0.058314 0.145282
0.298501 0.477178 0.242317
1.767894 0.737322 0.131016
1.748914 0.725736 0.126659
1.663750 0.890823 0.128307
1.273255 0.948063 0.124716
0.620020 0.088976 0.045004
1.806943 0.207644 0.102667
1.453508 0.199712 0.156906
0.922445 0.768211 0.063060
1.584093 0.192360 0.174090
0.113890 0.026649 0.023001
1.748547 0.811199 0.158311
0.930861 0.391416 0.062478
0.581809 0.143817 0.025798
1.351256 0.785353 0.106152
1.772753 0.776811 0.144637
0.580143 0.046920 0.128360
1.292445 0.806516 0.073214
0.436790 0.535366 0.014941
0.427097 0.025377 0.097983
0.815261 0.396941 0.203250
0.997406 0.133710 0.052732
0.039412 0.708440 0.240335
0.381644 0.596911 0.013657
1.812976 0.169484 0.137292
0.664918 0.060924 0.168169
0.191321 0.969973 0.215504
1.579489 0.231029 0.096817
0.725895 0.616373 0.034494
1.478146 0.788114 0.132464
0.388407 0.930538 0.205775
0.391652 0.112505 0.021805
0.781258 0.658393 0.209237
1.021460 0.243401 0.064445
0.980380 0.255892 0.185416
1.840503 0.782819 0.111325
0.909887 0.500094 0.063077
0.834002 0.685694 0.043035
0.297545 0.980373 0.159227
0.548858 0.116439 0.213581
0.249163 0.212285 0.024646
0.817422 0.666049 0.200989
1.779050 0.734805 0.142107
0.467830 0.976295 0.141375
0.664681 0.950701 0.114973
1.308526 0.947751 0.136857
0.542078 0.410570 0.228793
0.994444 0.651748 0.099318
0.033142 0.995310 0.045901
0.143124 0.792596 0.005545
0.009320 0.621349 0.216061
1.589542 0.773212 0.139318
0.035235 0.622165 0.243154
1.623225 0.095203 0.114504
1.735755 0.777990 0.154408
1.680081 0.881375 0.152011
1.538395 0.080338 0.148784
0.324570 0.394490 0.013256
0.995222 0.349490 0.109166
1.414731 0.180787 0.073140
0.424565 0.779345 0.231534
1.403695 0.930658 0.088790
0.036811 0.190275 0.013899
1.730675 0.239983 0.092632
1.219734 0.179424 0.173016
1.746981 0.259266 0.111623
1.451615 0.194531 0.080127
1.178096 0.193551 0.072851
1.810122 0.184020 0.108158
1.204250 0.950443 0.103881
1.546380 0.837048 0.077386
1.327787 0.932154 0.081148
1.519629 0.913848 0.089652
0.692444 0.107729 0.038391
0.820811 0.939398 0.104818
0.876361 0.348243 0.198407
0.648634 0.185250 0.029213
1.127245 0.067156 0.068571
0.090004 0.964978 0.238645
1.505886 0.901093 0.076080
0.327718 0.742744 0.031887
0.703312 0.878113 0.212160
1.551846 0.185747 0.164855
1.808883 0.746119 0.130539
0.709458 0.477291 0.211275
0.453687 0.065712 0.034021
0.803621 0.682999 0.038005
1.282023 0.054415 0.148801
0.735585 0.175713 0.037347
0.997904 0.644419 0.111819
0.588811 0.486044 0.226942
0.975863 0.552592 0.166691
1.630001 0.111553 0.095039
0.870709 0.858196 0.207538
1.812581 0.765415 0.140343
0.822441 0.674259 0.214987
0.860628 0.228561 0.042990
1.584330 0.236171 0.101687
0.720673 0.954323 0.123920
0.381455 0.144136 0.028690
0.683768 0.932023 0.070159
1.036419 0.158457 0.059085
0.477981 0.488558 0.017637
0.716489 0.933125 0.080610
1.656083 0.103072 0.134875
1.113314 0.049481 0.151775
0.015852 0.508279 0.235164
0.845721 0.280475 0.042800
0.492033 0.314292 0.233286
0.985910 0.947344 0.117160
1.521710 0.798774 0.168595
0.845036 0.744497 0.042728
1.355096 0.868180 0.184777
0.760293 0.633606 0.035851
0.274830 0.980750 0.195939
0.038695 0.425317 0.017208
1.776613 0.739268 0.147270
0.029159 0.374076 0.239262
0.506086 0.061829 0.038246
1.853105 0.210312 0.120295
1.214811 0.181360 0.179497
0.012739 0.515388 0.242668
0.336022 0.436638 0.228642
0.341120 0.037018 0.043545
1.190991 0.059086 0.076097
0.009272 0.605887 0.000608
1.062416 0.059176 0.076302
0.755565 0.567961 0.043903
0.749350 0.645252 0.032540
0.007507 0.280701 0.235337
1.781201 0.769076 0.096684
1.321029 0.871833 0.189628
0.747959 0.543438 0.042871
1.199580 0.056075 0.170359
0.417256 0.963881 0.068042
0.023417 0.131511 0.025392
1.376592 0.193984 0.075197
0.017274 0.890247 0.249247
1.823754 0.810576 0.125246
0.971239 0.640231 0.069880
0.825966 0.577477 0.201715
1.603820 0.194657 0.173632
0.703521 0.101848 0.043702
0.019072 0.982475 0.216453
1.481214 0.206253 0.140488
0.511022 0.902215 0.225301
1.037271 0.732047 0.080698
0.148774 0.009886 0.206889
1.067407 0.950445 0.138098
0.793475 0.867013 0.205784
0.667938 0.900302 0.044655
1.854490 0.798810 0.123573
1.327322 0.051429 0.137920
0.391256 0.953538 0.202053
1.732043 0.818124 0.086440
0.289390 0.027788 0.041355
0.310941 0.020837 0.163939
0.976356 0.447381 0.082551
0.017869 0.746419 0.011223
1.482131 0.102151 0.078053
0.760478 0.238157 0.214202
0.925295 0.497893 0.064869
0.029763 0.534143 0.227504
1.587503 0.202251 0.166456
0.584800 0.863461 0.035298
1.822527 0.232272 0.114136
0.998610 0.452564 0.110637
1.052716 0.934719 0.182665
0.637542 0.132897 0.216276
0.943427 0.297172 0.187745
0.779486 0.943228 0.140721
1.264042 0.058640 0.102361
1.008097 0.076737 0.185780
0.353066 0.036471 0.211630
1.276091 0.064224 0.174762
1.017769 0.301399 0.144566
0.449450 0.956387 0.088160
1.742803 0.825699 0.157971
1.780920 0.735374 0.135494
0.383962 0.978321 0.093368
0.034644 0.000456 0.183338
0.841047 0.906570 0.057656
0.305978 0.483856 0.009035
1.712530 0.270821 0.103421
0.978243 0.282691 0.187568
1.660163 0.105819 0.133496
0.665217 0.648502 0.027779
0.688657 0.111195 0.209702
0.065392 0.982744 0.021911
1.531288 0.182876 0.079230
0.635254 0.443754 0.219726
1.569518 0.811007 0.167374
0.016624 0.014246 0.082025
1.680255 0.131212 0.096986
0.081836 0.958567 0.017659
0.971434 0.941875 0.076373
0.599943 0.098209 0.207061
0.816041 0.638234 0.206438
1.539592 0.078811 0.149251
0.963120 0.722708 0.192829
1.817079 0.231221 0.121925
0.741303 0.448469 0.207061
0.943449 0.156584 0.050110
0.661973 0.057246 0.174117
0.181205 0.989769 0.169676
1.677951 0.220682 0.089452
0.502623 0.073993 0.033547
1.554867 0.231951 0.142999
1.396914 0.895426 0.176243
0.952795 0.510230 0.181226
1.708150 0.231066 0.089675
1.000253 0.848362 0.053426
0.333596 0.097882 0.018270
0.467837 0.905718 0.218711
1.632341 0.769654 0.088274
0.853766 0.399799 0.196817
0.937794 0.602632 0.060758
1.539413 0.179428 0.074025
0.672670 0.666416 0.224159
0.994360 0.064553 0.161256
1.806094 0.757553 0.111317
0.972585 0.339358 0.073606
0.413830 0.035539 0.193909
1.754140 0.777564 0.149335
1.739956 0.146777 0.104872
0.994895 0.372788 0.133075
0.491953 0.539140 0.015374
0.829100 0.348902 0.199619
1.584006 0.232353 0.094738
1.699045 0.880698 0.141371
0.579524 0.401023 0.024047
1.182173 0.045556 0.120629
0.869346 0.848102 0.044230
1.804868 0.732352 0.128728
1.373122 0.063337 0.089809
0.992392 0.403218 0.112591
0.907300 0.230838 0.048462
1.083504 0.119525 0.196319
0.835380 0.103961 0.201331
1.276151 0.949330 0.111945
0.151634 0.617914 0.004105
0.060589 0.686897 0.248741
0.961966 0.075601 0.181653
0.664544 0.269924 0.031047
1.039087 0.263955 0.077173
0.064370 0.639073 0.012297
0.796121 0.684493 0.043084
0.668364 0.312950 0.221105
1.689050 0.271392 0.132303
1.511149 0.077432 0.154065
0.761091 0.399068 0.209761
0.275449 0.024504 0.041107
0.801729 0.877341 0.044638
1.147467 0.804189 0.177617
0.039612 0.572776 0.015157
0.700374 0.522786 0.218005
0.594466 0.043087 0.160819
0.536784 0.079154 0.212684
1.696946 0.247291 0.160026
0.600569 0.686702 0.020353
1.299069 0.114090 0.182487
0.039478 0.849050 0.000974
0.631377 0.853676 0.221546
0.073722 0.953173 0.013229
0.083388 0.003289 0.208413
1.736311 0.859629 0.099317
0.764936 0.105635 0.199435
0.028514 0.373922 0.238460
0.612034 0.877138 0.035929
1.001453 0.763821 0.194079
1.000713 0.523289 0.126477
0.032560 0.943036 0.001750
0.848723 0.270628 0.205797
0.018438 0.387662 0.244541
1.434038 0.915721 0.077792
0.492468 0.947578 0.053081
1.729553 0.793690 0.090182
0.921661 0.499644 0.062862
0.479755 0.950929 0.052372
0.930044 0.394762 0.062067
0.881049 0.616304 0.201444
0.718072 0.930721 0.089764
0.727363 0.950592 0.108772
0.317392 0.977177 0.071933
0.300452 0.020559 0.057105
0.444267 0.036757 0.175317
1.105098 0.049370 0.158958
1.155275 0.101227 0.185401
0.764968 0.119612 0.199810
1.123442 0.897281 0.185445
1.833645 0.748780 0.125013
</DataArray>
</Points>
<PointData>
<DataArray NumberOfComponents='1' type='Int32' Name='ParticleType' format='ascii'>
1
1
1
1
1
1
1
1
1
1
1
1
1
1
1
1
1
1
1
1
1
1
1
1
1
1
1
1
1
1
1
1
1
1
1
1
1
1
1
1
1
1
1
1
1
1
1
1
1
1
1
1
1
1
1
1
1
1
1
1
1
1
1
1
1
1
1
1
1
1
1
1
1
1
1
1
1
1
1
1
1
1
1
1
1
1
1
1
1
1
1
1
1
1
1
1
1
1
1
1
1
1
1
1
1
1
1
1
1
1
1
1
1
1
1
1
1
1
1
1
1
1
1
1
1
1
1
1
1
1
1
1
1
1
1
1
1
1
1
1
1
1
1
1
1
1
1
1
1
1
1
1
1
1
1
1
1
1
1
1
1
1
1
1
1
1
1
1
1
1
1
1
1
1
1
1
1
1
1
1
1
1
1
1
1
1
1
1
1
1
1
1
1
1
1
1
1
1
1
1
1
1
1
1
1
1
1
1
1
1
1
1
1
1
1
1
1
1
1
1
1
1
1
1
1
1
1
1
1
1
1
1
1
1
1
1
1
1
1
1
1
1
1
1
1
1
1
1
1
1
1
1
1
1
1
1
1
1
1
1
1
1
1
1
1
1
1
1
1
1
1
1
1
1
1
1
1
1
1
1
1
1
1
1
1
1
1
1
1
1
1
1
1
1
1
1
1
1
1
1
1
1
1
1
1
1
1
1
1
1
1
1
1
1
1
1
1
1
1
1
1
1
1
1
1
1
1
1
1
1
1
1
1
1
1
1
1
1
1
1
1
1
1
1
1
1
1
1
1
1
1
1
1
1
1
1
1
1
1
1
1
1
1
1
1
1
1
1
1
1
1
1
1
1
1
1
1
1
1
1
1
1
1
1
1
1
1
1
1
1
1
1
1
1
1
1
1
1
1
1
1
1
1
1
1
1
1
1
1
1
1
1
1
1
1
1
1
1
1
1
1
1
1
1
1
1
1
1
1
1
1
1
1
1
1
1
1
1
1
1
1
1
1
1
1
1
1
1
1
1
1
1
1
1
1
1
1
1
1
1
1
1
1
1
1
1
1
1
1
1
1
1
1
1
1
1
1
1
1
1
1
1
1
1
1
1
1
1
1
1
1
1
1
1
1
1
1
1
1
1
</DataArray>
<DataArray NumberOfComponents='1' type='Int32' Name='ParticleID' format='ascii'>
0
1
2
3
4
5
6
7
8
9
10
11
12
13
14
15
16
17
18
19
20
21
22
23
24
25
26
27
28
29
30
31
32
33
34
35
36
37
38
39
40
41
42
43
44
45
46
47
48
49
50
51
52
53
54
55
56
57
58
59
60
61
62
63
64
65
66
67
68
69
70
71
72
73
74
75
76
77
78
79
80
81
82
83
84
85
86
87
88
89
90
91
92
93
94
95
96
97
98
99
100
101
102
103
104
105
106
107
108
109
110
111
112
113
114
115
116
117
118
119
120
121
122
123
124
125
126
127
128
129
130
131
132
133
134
135
136
137
138
139
140
141
142
143
144
145
146
147
148
149
150
151
152
153
154
155
156
157
158
159
160
161
162
163
164
165
166
167
168
169
170
171
172
173
174
175
176
177
178
179
180
181
182
183
184
185
186
187
188
189
190
191
192
193
194
195
196
197
198
199
200
201
202
203
204
205
206
207
208
209
210
211
212
213
214
215
216
217
218
219
220
221
222
223
224
225
226
227
228
229
230
231
232
233
234
235
236
237
238
239
240
241
242
243
244
245
246
247
248
249
250
251
252
253
254
255
256
257
258
259
260
261
262
263
264
265
266
267
268
269
270
271
272
273
274
275
276
277
278
279
280
281
282
283
284
285
286
287
288
289
290
291
292
293
294
295
296
297
298
299
300
301
302
303
304
305
306
307
308
309
310
311
312
313
314
315
316
317
318
319
320
321
322
323
324
325
326
327
328
329
330
331
332
333
334
335
336
337
338
339
340
341
342
343
344
345
346
347
348
349
350
351
352
353
354
355
356
357
358
359
360
361
362
363
364
365
366
367
368
369
370
371
372
373
374
375
376
377
378
379
380
381
382
383
384
385
386
387
388
389
390
391
392
393
394
395
396
397
398
399
400
401
402
403
404
405
406
407
408
409
410
411
412
413
414
415
416
417
418
419
420
421
422
423
424
425
426
427
428
429
430
431
432
433
434
435
436
437
438
439
440
441
442
443
444
445
446
447
448
449
450
451
452
453
454
455
456
457
458
459
460
461
462
463
464
465
466
467
468
469
470
471
472
473
474
475
476
477
478
479
480
481
482
483
484
485
486
487
488
489
490
491
492
493
494
495
496
497
498
499
</DataArray>
<DataArray NumberOfComponents='1' type='Int8' Name='IsActive' format='ascii'>
1
1
1
1
1
1
1
1
1
1
1
1
1
1
1
1
1
1
1
1
1
1
1
1
1
1
1
1
1
1
1
1
1
1
1
1
1
1
1
1
1
1
1
1
1
1
1
1
1
1
1
1
1
1
1
1
1
1
1
1
1
1
1
1
1
1
1
1
1
1
1
1
1
1
1
1
1
1
1
1
1
1
1
1
1
1
1
1
1
1
1
1
1
1
1
1
1
1
1
1
1
1
1
1
1
1
1
1
1
1
1
1
1
1
1
1
1
1
1
1
1
1
1
1
1
1
1
1
1
1
1
1
1
1
1
1
1
1
1
1
1
1
1
1
1
1
1
1
1
1
1
1
1
1
1
1
1
1
1
1
1
1
1
1
1
1
1
1
1
1
1
1
1
1
1
1
1
1
1
1
1
1
1
1
1
1
1
1
1
1
1
1
1
1
1
1
1
1
1
1
1
1
1
1
1
1
1
1
1
1
1
1
1
1
1
1
1
1
1
1
1
1
1
1
1
1
1
1
1
1
1
1
1
1
1
1
1
1
1
1
1
1
1
1
1
1
1
1
1
1
1
1
1
1
1
1
1
1
1
1
1
1
1
1
1
1
1
1
1
1
1
1
1
1
1
1
1
1
1
1
1
1
1
1
1
1
1
1
1
1
1
1
1
1
1
1
1
1
1
1
1
1
1
1
1
1
1
1
1
1
1
1
1
1
1
1
1
1
1
1
1
1
1
1
1
1
1
1
1
1
1
1
1
1
1
1
1
1
1
1
1
1
1
1
1
1
1
1
1
1
1
1
1
1
1
1
1
1
1
1
1
1
1
1
1
1
1
1
1
1
1
1
1
1
1
1
1
1
1
1
1
1
1
1
1
1
1
1
1
1
1
1
1
1
1
1
1
1
1
1
1
1
1
1
1
1
1
1
1
1
1
1
1
1
1
1
1
1
1
1
1
1
1
1
1
1
1
1
1
1
1
1
1
1
1
1
1
1
1
1
1
1
1
1
1
1
1
1
1
1
1
1
1
1
1
1
1
1
1
1
1
1
1
1
1
1
1
1
1
1
1
1
1
1
1
1
1
1
1
1
1
1
1
1
1
1
1
1
1
1
1
1
1
1
1
1
1
1
1
1
</DataArray>
<DataArray NumberOfComponents='1' type='Int32' Name='ParticleTetID' format='ascii'>
25083
17979
79807
75323
38536
82905
69121
63529
23592
17238
32700
74251
29411
83792
44291
52974
6703
12396
2975
62675
103753
101388
87112
52957
85477
38536
57267
29762
100560
2068
54322
18573
8604
62886
6062
24926
37550
17908
17134
81531
33914
86849
21155
62083
48339
83524
94294
104961
18382
6374
15416
80251
15757
100560
104251
8712
80463
313
41305
17995
77219
45042
25514
24333
25741
65728
66562
68052
23903
36115
9985
595
7964
102887
80251
24218
91017
61354
45373
12731
99295
49572
47033
17908
4394
52822
27941
56669
84604
75940
6430
64245
15737
41738
89709
64197
99903
82325
59495
87019
10018
101500
20544
21772
62130
52396
16998
51664
64829
103156
46149
22659
66540
65945
75852
69790
43797
5932
101245
61063
100821
49272
12396
53188
75534
8713
51619
101780
30672
87568
62231
100092
39614
35370
71341
42653
24215
52810
33138
55546
62165
56188
33731
41818
65167
49067
43626
21852
63747
34698
58350
62889
103753
62130
4183
36737
26446
53218
99903
69349
52777
48228
844
67752
94075
23065
59002
47633
65951
58338
97137
45300
39540
77227
45068
34266
101445
78688
795
38536
48237
8399
103242
14533
101509
50608
49192
97137
760
35269
9581
23107
57769
48486
39533
69121
51664
24498
102272
39097
49774
87724
43886
11998
76933
61412
100903
9995
5813
46751
48339
15737
6328
38282
105201
49419
59715
75115
47405
82439
53277
20455
98538
49053
62275
81798
4631
31808
15458
34988
17845
69970
19772
51663
12026
35645
24801
49806
16334
8723
84978
16655
6766
47449
38536
39319
105353
9492
104156
12098
2621
54322
53079
66376
68052
79127
60166
99980
48001
100807
71129
100807
55776
53277
6328
76708
58976
19275
43766
56789
57355
85474
30810
103194
18938
29126
8145
51664
58462
77880
34659
19381
64275
76955
13293
68440
56048
99871
10127
49895
31794
11350
53462
105053
55211
54805
72737
79855
25024
15105
44829
65117
23007
39540
2621
23628
32020
29839
76982
11305
1435
2058
43861
9985
49301
100092
33731
21989
64090
9210
19507
58637
37243
106069
74099
54322
101063
12438
51664
6819
100092
63810
17383
60886
101354
64063
17134
48397
98826
51776
97007
45933
36115
58328
94294
25340
71593
64829
70267
10472
89349
65770
101245
70552
65671
2118
23867
4528
95162
47502
4394
73989
6345
67504
62083
64260
59164
100743
13934
37277
17710
77116
27918
8399
49419
5691
4873
29532
24818
17685
25683
61957
11389
86834
7393
46133
64989
54322
51677
101043
8538
6132
20678
15077
9985
14701
23903
99126
53778
96644
66335
101509
19747
94926
81210
105827
69792
76708
63505
103753
63555
79081
12026
63562
36313
95854
28934
15416
63447
30810
13409
57287
44784
20730
66068
32697
15621
46419
708
49459
68103
39172
65167
95232
54721
94090
26657
32020
29626
89535
81229
37411
71181
62736
25421
81768
29257
33628
21487
67328
90920
12355
1450
45648
61979
53941
11286
73772
98716
36197
63045
59495
86294
88021
13937
53426
33914
56669
72034
60819
100560
58399
94926
15033
5067
2176
101063
16854
23904
18398
95063
104665
101063
20274
8392
79238
17710
5250
20455
43943
44536
25708
23166
73336
76933
49301
3546
2176
51013
53462
</DataArray>
<DataArray NumberOfComponents='3' type='Float32' Name='vels' format='ascii'>
12.680457 1.041147 0.008142
25.490402 10.656705 0.007368
0.619031 -0.018386 -0.064232
31.991042 5.346884 0.000869
23.883098 -3.471330 0.008826
0.849213 0.029609 0.005034
36.706949 3.994361 0.023839
14.425255 3.061294 0.013302
12.011018 0.996471 0.008340
7.529767 0.460789 0.002640
11.262682 -0.597742 -0.004401
1.487453 -0.003520 -0.012538
8.142883 0.383022 -0.000026
4.338847 -0.079134 0.000460
12.174869 1.111930 0.004396
31.964243 -0.481484 -0.076482
13.534933 -2.675244 0.004234
14.926489 0.892758 0.082407
9.639525 0.102742 -0.005090
34.080183 0.325741 0.046705
23.961655 4.071999 -0.011607
-0.060260 0.039710 -0.002803
35.163821 -7.764521 0.017052
2.122168 0.007748 0.007940
32.820515 -1.117569 0.003142
24.415125 -4.848034 -0.000685
3.142555 -0.344706 -0.139157
28.590953 11.378223 -0.007511
-0.011422 0.046731 -0.008519
6.052336 0.026879 -0.008609
23.250625 -6.299283 0.006010
2.869335 -0.020754 0.001346
7.824959 0.048502 -0.024273
32.688511 13.752951 0.099998
9.623198 0.204420 -0.011540
2.172759 1.173522 -0.000655
33.879851 6.380299 0.026003
27.011359 3.233376 0.001189
11.178270 1.970457 -0.000417
15.155736 -1.064705 -0.011943
7.590794 -0.179133 -0.028532
3.919305 -0.059370 0.000106
2.111790 -0.013763 -0.000693
4.605524 -0.004374 -0.002439
24.277861 -6.539217 -0.010603
-0.035158 0.008250 -0.002825
0.085079 0.029694 -0.001951
27.212113 -8.425319 -0.014431
9.851662 0.300143 -0.022181
13.500081 6.080132 0.006170
27.794510 0.050581 0.008822
-0.003710 -0.028909 0.007549
22.425665 4.232086 -0.013659
0.162524 0.033635 -0.018496
7.415422 -0.056943 0.001223
12.109333 -1.537912 0.001510
5.781057 0.085001 -0.001357
9.302516 -1.305824 -0.001435
27.621432 0.083084 -0.018671
9.557031 -0.042392 0.040302
9.998240 -0.468183 -0.000096
34.122790 -2.139662 -0.010511
1.466839 0.002771 0.006434
14.487627 10.940664 0.059684
12.511294 5.111888 0.006800
1.280357 -0.000657 -0.001526
10.564118 -0.470938 0.000612
16.667591 -0.010931 0.020318
14.725815 -0.583047 0.018807
30.137133 -0.555354 0.077867
28.267533 4.856621 -0.032359
8.285474 -0.189677 -0.006472
8.752483 0.085843 -0.039839
32.811721 -3.007631 0.035267
-0.056249 0.006472 0.000424
5.628240 0.200192 -0.001243
22.224735 8.196928 -0.023000
38.417853 0.484041 -0.035490
26.554377 -9.564699 -0.004397
40.734643 -8.478774 -0.021920
0.054277 -0.005078 -0.007369
27.032964 -13.344726 -0.030898
3.895990 0.210750 -0.009004
24.883622 2.810338 0.007924
23.956771 -3.026935 0.008310
3.740876 -0.049678 0.000363
6.827972 0.021255 0.014840
26.749419 10.780090 -0.002980
23.439295 -0.983980 -0.051025
36.732204 4.464215 0.032357
7.293506 0.265877 -0.001086
33.095861 -0.751719 -0.011237
23.455140 -7.675437 0.006778
12.813931 -2.481067 0.005356
28.244176 13.269283 0.009487
0.654657 -0.002220 -0.001517
0.208900 0.054002 -0.007779
29.227899 4.335122 0.007686
14.884050 2.307507 -0.027755
7.602954 -0.370733 0.005456
8.148665 -2.371077 -0.012583
0.182669 0.014835 -0.029111
24.741954 -3.777192 -0.022408
37.213724 -1.741567 -0.150289
21.512183 -2.536348 -0.020844
39.527520 -0.479668 0.019383
43.347620 3.404757 -0.015287
24.257647 3.864966 -0.006800
21.603741 -2.701676 -0.030550
11.466828 -0.246643 0.044914
31.558313 0.002940 0.028058
6.455057 -8.453206 0.200735
1.957903 0.025498 0.001297
38.876106 -0.999385 -0.099878
11.060191 1.187309 0.006204
13.916656 4.949297 -0.006997
42.128642 -2.205285 -0.052794
4.589502 -0.008299 -0.012776
0.054856 0.006342 -0.022810
3.506582 -0.192218 -0.147913
0.445549 0.012267 0.008917
11.951928 -0.891708 0.000198
6.077159 0.126124 0.052359
22.340996 -0.987999 -0.046979
18.168504 8.929554 -0.001898
7.364286 0.152340 -0.010296
24.942518 4.257133 -0.008406
18.867952 11.843798 0.055229
23.023765 -4.241298 0.023676
11.879086 -0.857221 -0.012686
11.131528 -0.333483 0.014563
-0.137596 0.020404 -0.003808
35.197565 -0.301238 -0.068478
18.058488 -1.224963 0.006025
35.032014 2.075142 0.111490
17.548385 -8.239561 -0.004373
6.366139 -4.059770 0.019746
24.487170 -9.258226 0.007579
3.862765 0.031044 -0.003897
1.873288 -0.004702 0.000639
38.736325 -13.136530 0.025730
16.532945 6.848652 -0.019399
11.743072 -5.443203 -0.019417
24.048518 5.767334 -0.009201
23.041107 -4.669779 -0.012342
11.173152 0.067689 0.017302
4.490560 -0.003838 -0.008821
38.353040 -1.086189 -0.011862
12.775789 -4.671724 0.036124
12.301673 -3.708028 0.001245
24.535165 -0.252060 0.005476
12.658029 1.022882 0.010948
24.214602 4.408831 -0.015423
19.033832 -3.178300 0.000698
10.171399 0.148265 -0.048801
8.126821 0.056356 0.034596
9.397395 -0.052336 0.019905
9.952820 -0.722730 0.002400
0.067240 -0.011362 0.018054
7.583149 0.541641 -0.004023
37.861056 -0.117543 -0.036159
9.453145 0.110474 0.022181
29.377027 -5.075296 0.022912
21.619949 -3.422227 0.021097
7.838523 -0.317935 -0.012367
37.250105 -0.330476 -0.011161
32.726297 0.553703 0.050250
37.592267 -2.430293 0.144854
8.454764 -0.056058 -0.026369
5.563055 -0.012209 -0.038355
-0.054640 -0.003507 0.007064
31.168652 -2.170921 -0.046029
24.165113 -4.266736 -0.010737
10.601375 1.716095 -0.003156
37.435106 2.650499 -0.122684
37.693898 0.368239 -0.055382
0.360289 -0.005344 0.003407
34.595777 -3.172550 0.015299
27.945850 4.629242 -0.007418
24.155630 -4.356205 0.001748
34.633853 -11.759467 0.026385
11.445616 0.384971 0.003684
5.785916 -1.744547 -0.011047
11.912857 0.333169 0.027039
0.097891 -0.003528 0.033360
25.401918 1.402279 -0.127237
5.096382 0.115512 -0.025436
-0.027324 -0.000420 -0.003322
30.990616 13.601453 0.002522
4.046832 0.066974 0.000509
25.279073 -4.410197 0.008363
34.181708 -2.236404 0.035470
24.622825 5.342753 -0.007800
41.511799 -0.652154 -0.057737
5.710073 -0.740336 -0.396672
34.636284 3.481043 0.037936
24.331182 3.779628 -0.003447
2.402987 -0.004414 -0.040776
26.147379 5.965245 0.002170
9.564707 -0.548579 -0.001724
23.840306 -4.933545 0.008494
35.983706 -5.216204 0.025008
7.925658 0.065617 0.017033
25.467414 -7.824578 -0.012577
6.212254 -0.059679 0.018411
23.828140 3.223295 0.004408
-0.071533 0.032679 -0.001543
33.456744 -2.121462 -0.013650
29.898818 0.009805 -0.027416
2.769674 -0.001370 0.000191
21.733396 -5.525701 -0.018922
24.519755 -8.062388 -0.006812
27.866853 -4.229923 0.023579
29.621048 -0.008785 -0.014248
11.836976 -0.465065 -0.008474
24.164792 4.456622 0.008430
39.873726 -0.857368 0.109537
17.919735 9.174297 -0.011211
24.911556 7.078738 -0.012750
0.131739 -0.005314 0.000171
24.874127 -5.571341 -0.019943
6.526399 -5.740998 -0.078724
7.647945 -0.311877 -0.000943
38.040769 -0.304263 0.013701
24.694516 -5.832999 0.005542
11.768149 -0.196130 0.006443
35.899585 -1.513685 0.086716
5.163560 0.046227 0.000464
5.382487 0.019040 0.003460
3.448379 -1.108218 0.007477
23.669346 -5.935877 -0.029556
0.076530 -0.031402 0.008974
4.027476 0.045917 -0.000199
24.168978 3.561853 -0.007241
12.168120 -0.353563 0.013080
2.774739 -0.001200 -0.009832
37.652287 12.541828 0.016565
8.181454 1.831698 -0.007789
42.764034 -2.230048 0.004577
8.470477 0.037540 -0.022296
5.901427 -0.070736 -0.005091
11.046815 2.944029 -0.009235
18.416797 -13.681678 -0.202341
18.092491 -13.387531 0.100653
24.048944 -3.765757 0.001854
5.964466 -0.101451 -0.029706
12.404516 4.773973 0.009089
4.457531 -0.006755 -0.008225
13.203917 -0.540059 -0.014525
7.974551 -0.083252 -0.005816
12.533572 4.349562 -0.009447
23.181694 -6.021291 -0.006869
6.062447 0.019295 0.006588
10.867614 0.249882 0.001297
25.876620 -0.033095 0.038703
6.955957 -0.197374 -0.000771
3.550634 7.924585 -0.243405
-0.072957 0.000429 0.025905
11.091281 -0.028131 -0.094048
-0.050096 0.033498 -0.015670
39.951812 -11.953403 -0.013001
0.028514 -0.038185 0.015494
30.508490 4.798918 -0.015793
25.080834 -7.522800 -0.007009
26.541829 -4.356955 -0.001499
31.641446 2.476877 -0.020142
4.608122 -0.040394 -0.000181
2.416585 -6.487851 -0.152049
36.454446 -1.062473 -0.083222
6.155822 0.133190 -0.000441
30.647475 -0.271220 -0.011307
-0.010480 -0.000717 -0.006150
24.010642 7.012929 0.015554
37.106624 -1.605930 -0.049198
25.934837 8.149694 0.004029
39.231462 0.476523 -0.086472
36.183995 -5.545035 -0.005922
24.285262 3.801585 0.002126
27.889080 0.334510 -0.072148
38.943476 -6.575494 0.023356
32.070174 0.048509 -0.043311
29.654958 -2.134194 0.064076
14.294024 -0.874800 -0.020481
16.741010 1.134330 -0.022986
14.106390 -7.094343 0.018878
9.565869 -0.829176 0.000533
26.157782 -1.043827 -0.005423
0.063014 0.002519 0.000641
34.910423 -2.698441 0.058412
10.142828 0.125190 -0.001837
11.189334 0.825973 -0.014421
36.010760 8.034485 -0.017535
24.243035 -5.202356 -0.005807
11.948049 -0.473406 0.008490
6.569122 -0.054696 -0.002143
10.747675 3.503345 0.011325
28.876052 0.060593 0.006777
12.362984 -1.668078 -0.009296
2.179818 6.276402 -0.124335
11.033205 -0.114269 0.017247
2.984896 1.908007 0.187654
31.918173 5.106392 0.029391
18.486671 4.704806 0.015338
24.375447 -4.187229 -0.004281
9.637396 3.688556 0.000480
15.919249 -4.767967 0.024744
36.646273 13.183183 0.029626
12.080296 0.371364 -0.024813