<VTKFile type='UnstructuredGrid' version='1.0' byte_order='LittleEndian' header_type='UInt64'>
<UnstructuredGrid>
<Piece NumberOfCells='500' NumberOfPoints='500'>
<Points>
<DataArray NumberOfComponents='3' type='Float32' Name='Position' format='ascii'>
1.959319 0.651089 0.226325
2.041913 0.322548 0.117272
0.400023 0.979474 0.222196
2.032789 0.817449 0.183718
2.006422 0.772777 0.106364
0.278288 0.191295 0.246112
2.021840 0.236634 0.075397
2.017995 0.818960 0.207017
1.983150 0.655525 0.223978
1.834862 0.785106 0.226784
2.000547 0.222329 0.034662
0.404224 0.005666 0.058456
1.760826 0.603519 0.221931
1.146346 0.131113 0.237193
2.020090 0.731064 0.214867
2.029884 0.896507 0.149988
2.019396 0.268186 0.204956
2.024177 0.929727 0.162309
2.005561 0.815987 0.218321
2.028493 0.103892 0.112536
2.053310 0.240382 0.149626
0.556040 0.101653 0.228729
2.013011 0.752185 0.079681
0.522006 0.992191 0.150740
2.010016 0.889759 0.129730
2.047684 0.745451 0.119795
1.519365 0.493651 0.098040
2.034071 0.303870 0.160488
0.090903 0.853728 0.001639
1.509610 0.959623 0.222124
2.049422 0.718082 0.151819
0.831691 0.255871 0.242402
1.681141 0.972637 0.184950
2.022542 0.715620 0.181877
2.007435 0.963692 0.130137
2.010632 0.639137 0.200410
2.032977 0.238094 0.074622
2.000648 0.118576 0.122908
2.023587 0.621514 0.041745
2.021349 0.083507 0.064647
1.869723 0.071948 0.216822
1.053374 0.156883 0.239432
0.618984 0.279424 0.008499
0.993608 0.025164 0.030078
2.007880 0.710244 0.115067
0.494984 0.527532 0.009288
0.028986 0.129627 0.019855
2.001995 0.747523 0.166309
2.009973 0.935019 0.106858
2.032963 0.684623 0.203324
2.034140 0.855777 0.176953
0.022794 0.665319 0.224342
2.008327 0.295468 0.130869
0.109864 0.848769 0.003194
1.168134 0.243421 0.231041
2.014178 0.336587 0.209485
1.633807 0.893500 0.230578
2.021289 0.403139 0.038827
2.020040 0.916381 0.117455
2.011438 0.042650 0.166426
2.009763 0.231899 0.027127
2.033928 0.852710 0.179680
0.364839 0.992517 0.194433
2.009942 0.676050 0.191148
2.019976 0.708230 0.042371
0.275996 0.724010 0.002343
2.005428 0.343931 0.028379
2.031539 0.915199 0.125560
2.031289 0.095241 0.207983
2.018562 0.097872 0.154440
2.032726 0.151930 0.157049
1.618985 0.355608 0.023895
2.008613 0.966694 0.115869
2.012379 0.857800 0.088540
0.040216 0.652532 0.241954
1.824622 0.628470 0.029575
2.006516 0.709664 0.056035
2.006612 0.733044 0.069206
2.032027 0.708061 0.156368
2.047422 0.659033 0.158041
1.328500 0.109423 0.212918
2.008623 0.671327 0.150335
2.017950 0.932096 0.066731
2.000212 0.119345 0.120454
2.027649 0.788814 0.122788
0.977037 0.157885 0.241159
1.519280 0.981747 0.187348
2.037782 0.301018 0.135393
2.000514 0.077327 0.105807
2.037639 0.231862 0.074891
1.623789 0.694979 0.020360
2.043692 0.901627 0.126913
2.041219 0.688146 0.137356
2.000429 0.215780 0.041495
2.033186 0.327317 0.104475
0.192364 0.612383 0.250010
0.034528 0.562738 0.250112
2.044269 0.818918 0.199550
2.001223 0.848056 0.050231
2.017651 0.129320 0.202862
2.012521 0.233298 0.045845
0.490768 0.981390 0.173304
2.030091 0.839346 0.098504
2.033268 0.354557 0.077770
2.041484 0.819601 0.133527
2.016896 0.735843 0.177114
2.005133 0.350592 0.093012
2.030378 0.211665 0.125291
2.051344 0.818365 0.128576
2.023131 0.039322 0.115082
2.015030 0.096685 0.090606
2.042048 0.398850 0.188016
0.585030 0.913094 0.241047
2.022922 0.372593 0.103430
2.023228 0.730447 0.214347
2.016049 0.756633 0.040487
2.020701 0.649097 0.095229
2.010562 0.904400 0.171377
0.074494 0.991752 0.222276
1.506218 0.497320 0.078159
0.130322 0.044501 0.005952
2.005788 0.276226 0.213360
2.032231 0.932595 0.160442
2.006229 0.058657 0.123712
2.029796 0.721484 0.189331
1.940588 0.894060 0.029579
2.022575 0.188149 0.135854
2.017201 0.681083 0.191017
2.023163 0.803616 0.100864
2.016357 0.106732 0.037931
1.999238 0.150153 0.222490
0.371564 0.504613 0.217541
2.015481 0.887887 0.167531
2.012309 0.059204 0.149143
2.024290 0.352007 0.073397
2.044852 0.258797 0.047845
2.004841 0.367351 0.200467
2.018896 0.681016 0.127061
0.931204 0.991123 0.100816
0.956758 0.456809 0.233622
2.018782 0.639498 0.119193
2.033252 0.732225 0.044826
2.006809 0.305431 0.041686
2.020581 0.271387 0.143559
2.029636 0.772421 0.161292
1.310965 0.984601 0.191969
1.011211 0.010312 0.100111
2.030579 0.775512 0.178289
2.041007 0.276005 0.046258
2.000271 0.289912 0.039032
2.030297 0.105648 0.171593
2.008805 0.883220 0.211431
2.007401 0.237211 0.132114
2.043957 0.792899 0.145899
1.985347 0.958798 0.088778
1.881612 0.960403 0.172303
1.689749 0.031480 0.162405
2.029679 0.371865 0.030569
0.031401 0.565873 0.250052
1.725483 0.620055 0.225492
2.031014 0.717976 0.184907
2.008829 0.958193 0.179470
2.015580 0.844944 0.092940
2.035106 0.799893 0.114166
1.991238 0.129292 0.223293
2.022126 0.726487 0.178634
2.027879 0.840318 0.184213
2.017479 0.630500 0.093234
2.004728 0.045776 0.165312
1.026792 0.020971 0.169604
0.037953 0.987271 0.129703
2.017105 0.149523 0.065801
2.002765 0.755692 0.135449
2.009781 0.723187 0.218147
2.024452 0.367358 0.155246
2.029788 0.686933 0.179488
0.072674 0.987740 0.008471
2.043170 0.614473 0.123196
2.022747 0.721939 0.186483
2.054804 0.758295 0.109029
2.041637 0.681193 0.088195
2.000301 0.875927 0.042103
2.000926 0.300494 0.207650
2.002114 0.947795 0.174869
0.485267 0.024116 0.079743
2.026112 0.916278 0.087320
2.030630 0.922772 0.068881
0.038190 0.988528 0.137885
2.043955 0.337547 0.127159
1.299864 0.886807 0.238488
2.014167 0.830135 0.092786
2.021179 0.297030 0.060840
2.006074 0.222603 0.150129
2.012553 0.718654 0.076826
0.232754 0.880172 0.246070
2.014067 0.221852 0.075742
2.022074 0.220839 0.125137
1.935461 0.045144 0.156736
2.024098 0.190148 0.166427
2.000155 0.115994 0.036692
2.031926 0.750208 0.100893
2.032816 0.780082 0.070591
1.144642 0.942126 0.017651
2.036882 0.229357 0.050515
1.331108 0.015758 0.192070
2.032852 0.230892 0.118425
0.455143 0.161695 0.227234
2.019598 0.843053 0.176573
2.016902 0.101517 0.145640
0.846468 0.455205 0.242377
2.045287 0.712677 0.129932
2.035427 0.694947 0.126864
2.048916 0.864810 0.125488
2.001647 0.913888 0.124021
2.014059 0.089480 0.039694
2.035264 0.224157 0.103852
2.025508 0.345656 0.154944
2.035546 0.726023 0.059531
2.008734 0.276993 0.174787
0.195009 0.027039 0.025541
2.014314 0.785718 0.158959
2.022817 0.412694 0.057546
2.015897 0.124400 0.020784
2.027677 0.625261 0.106097
2.002812 0.754347 0.144586
2.000397 0.043009 0.128105
2.012800 0.666294 0.074063
0.963093 0.659050 0.013099
1.482500 0.011320 0.095902
2.001944 0.360681 0.203661
2.009621 0.190728 0.054982
0.040485 0.702765 0.240727
1.217634 0.797881 0.013591
2.037639 0.183166 0.137945
2.002865 0.054265 0.168639
0.733643 0.974486 0.215191
2.030415 0.333994 0.097299
2.005081 0.638313 0.035432
2.021489 0.647323 0.134533
1.707635 0.942613 0.206547
1.605446 0.082471 0.020158
2.012652 0.670691 0.207114
2.017824 0.348008 0.065318
2.038313 0.328636 0.190803
2.017192 0.772864 0.111412
1.434928 0.504654 0.052073
2.022265 0.669826 0.040038
0.872334 0.987473 0.160662
2.002798 0.106988 0.215250
1.856830 0.188349 0.025047
2.022459 0.678012 0.204441
2.005690 0.712882 0.141472
1.389512 0.992532 0.144676
2.000333 0.953181 0.117134
2.019636 0.910267 0.135929
1.727101 0.356883 0.229351
2.006319 0.572720 0.097924
0.035069 0.995865 0.049952
0.443991 0.798637 0.005956
0.912453 0.721345 0.212643
2.007652 0.682386 0.138880
0.653764 0.631561 0.238013
2.005989 0.126293 0.114610
2.008474 0.747795 0.153841
2.001298 0.857592 0.150809
2.025124 0.119820 0.148109
0.953898 0.258938 0.013636
2.039586 0.412706 0.106171
2.024485 0.316321 0.073033
1.572918 0.859257 0.233680
2.013345 0.882962 0.090390
0.037393 0.188158 0.013116
2.015784 0.275097 0.093220
2.010821 0.308547 0.173000
2.033909 0.289244 0.112282
2.042875 0.331086 0.077792
2.039336 0.339690 0.068817
2.034917 0.195737 0.108191
2.013953 0.922460 0.103780
2.027577 0.749487 0.077519
2.000638 0.887062 0.082849
2.043238 0.860607 0.086299
2.022557 0.107515 0.035134
2.012521 0.933139 0.107317
2.021264 0.348509 0.201991
2.015875 0.174592 0.025673
2.036560 0.107947 0.066608
0.193495 0.964047 0.239559
2.018576 0.840891 0.076544
2.005662 0.767514 0.027929
2.025381 0.883073 0.216368
2.003428 0.277166 0.164066
2.040073 0.728954 0.132857
1.558274 0.325893 0.219840
1.792430 0.067243 0.035439
2.013732 0.699957 0.037390
2.038919 0.091718 0.151174
2.007386 0.174686 0.037130
2.010286 0.565693 0.109033
1.007403 0.318005 0.230744
1.921345 0.536623 0.180881
2.010992 0.147421 0.096275
2.023444 0.832276 0.209149
2.038118 0.748146 0.141266
2.007447 0.660923 0.215475
2.007343 0.252245 0.045028
2.038461 0.336184 0.102265
2.032140 0.948573 0.123652
1.956844 0.130002 0.030414
2.013046 0.936125 0.068833
2.036578 0.240857 0.056613
0.967696 0.405823 0.015525
2.019009 0.931509 0.079621
2.026656 0.128085 0.135971
2.011742 0.078111 0.152927
0.297054 0.510660 0.233462
2.005825 0.296214 0.042500
1.733293 0.262460 0.234052
2.020640 0.930446 0.117839
2.012230 0.680055 0.167305
2.024435 0.735181 0.039485
2.025570 0.769084 0.186028
2.012501 0.643426 0.035387
0.814212 0.989611 0.198367
0.039636 0.426091 0.016170
2.002534 0.716035 0.146029
0.110348 0.374455 0.241624
1.853252 0.057461 0.038710
2.028122 0.221336 0.119898
2.000288 0.313538 0.179206
0.013052 0.514239 0.240708
1.241679 0.217497 0.230812
1.228179 0.019223 0.041301
2.023364 0.091646 0.073414
0.007811 0.605221 -0.000325
2.022095 0.088833 0.073625
2.023175 0.607116 0.038665
2.028521 0.663280 0.028983
0.010610 0.278289 0.234702
2.048770 0.749451 0.090866
2.029164 0.787634 0.187305
2.009423 0.578671 0.035858
2.001214 0.102727 0.166548
1.645356 0.973937 0.067334
0.865998 0.101059 0.026460
2.016937 0.339622 0.074967
0.018953 0.890552 0.250145
2.000588 0.799573 0.125313
2.018788 0.585346 0.066433
2.010143 0.602290 0.201903
2.028930 0.271324 0.174884
2.010875 0.104483 0.044686
0.348774 0.981991 0.216903
2.026492 0.348990 0.140628
1.816737 0.912895 0.226303
2.033815 0.595950 0.076129
0.287141 0.010274 0.209618
2.031101 0.930411 0.137363
2.004660 0.865858 0.205160
2.002627 0.901958 0.043426
2.025588 0.792722 0.125310
2.036936 0.079405 0.138733
1.648287 0.966181 0.203633
2.006244 0.790524 0.087015
0.903561 0.018289 0.039177
0.737728 0.018513 0.164389
1.717577 0.447643 0.065410
0.016240 0.748082 0.010845
2.007610 0.172173 0.078813
2.007702 0.234239 0.216311
1.446660 0.499840 0.055100
0.798789 0.546247 0.229466
2.020352 0.301361 0.168629
2.011723 0.880291 0.032407
2.054257 0.245705 0.112442
1.206366 0.460700 0.108947
2.005327 0.901170 0.181384
2.004935 0.129279 0.216811
2.014286 0.350295 0.187820
2.016464 0.939830 0.139259
2.040402 0.096788 0.101012
2.001294 0.107314 0.184666
1.058430 0.022001 0.213665
2.038295 0.102904 0.177095
2.025195 0.408903 0.144709
1.870661 0.962010 0.089008
2.020001 0.799353 0.160508
2.012249 0.715509 0.135389
1.119543 0.996454 0.088929
0.034259 -0.000089 0.183998
2.032238 0.901429 0.052711
0.797004 0.476789 0.008767
2.047931 0.313367 0.104281
2.023425 0.371297 0.189176
2.033696 0.125638 0.135117
1.999729 0.672472 0.029318
2.009439 0.111121 0.210674
0.160900 0.985214 0.021579
2.001362 0.282336 0.081177
1.890368 0.384171 0.219773
2.016776 0.724579 0.168284
0.011977 0.012430 0.085655
2.007751 0.161367 0.097244
0.427252 0.958804 0.016286
2.021828 0.925834 0.076102
2.033920 0.088868 0.213205
2.012108 0.659642 0.207532
2.023007 0.116935 0.149028
2.001221 0.669073 0.192203
2.049318 0.245117 0.121517
2.007857 0.404492 0.211926
2.014259 0.206345 0.053412
2.029388 0.052975 0.176435
0.512731 0.989024 0.168998
2.017891 0.273142 0.089601
1.882865 0.075555 0.032076
2.001818 0.350240 0.144337
2.018226 0.826991 0.177203
1.466914 0.505536 0.188478
2.040798 0.271093 0.087862
2.039047 0.789668 0.048091
1.284110 0.057457 0.019447
1.888777 0.908664 0.218238
2.010548 0.695931 0.089083
2.015575 0.353923 0.199898
2.014640 0.582777 0.057398
2.024173 0.282589 0.075697
2.017580 0.697172 0.227207
2.025903 0.091580 0.162508
2.039833 0.740614 0.110457
2.045441 0.386358 0.068500
1.466696 0.019376 0.193541
2.035768 0.751377 0.149175
2.021132 0.167951 0.105210
2.030107 0.426089 0.134212
1.003723 0.716813 0.015324
2.017631 0.345764 0.201357
2.033975 0.332578 0.095046
2.024310 0.858399 0.143123
1.889702 0.359883 0.026293
2.036353 0.070023 0.119429
2.006043 0.826376 0.044697
2.033033 0.715423 0.127692
2.040083 0.091923 0.085418
2.023243 0.436303 0.110260
2.038732 0.267869 0.046259
2.022422 0.186151 0.198259
2.029531 0.103716 0.205389
2.015052 0.920555 0.112129
0.383940 0.618472 0.003748
0.246246 0.684714 0.247649
2.017961 0.096528 0.184175
2.003892 0.262647 0.030832
2.024277 0.380779 0.080066
0.691112 0.658426 0.012153
2.000152 0.715168 0.043558
2.015801 0.293648 0.220570
2.019767 0.325567 0.131726
2.010451 0.114133 0.153634
2.014853 0.372002 0.213192
0.806581 0.020089 0.039499
2.018938 0.868010 0.039757
2.008738 0.657800 0.178482
0.040517 0.572438 0.014432
1.548843 0.683992 0.223540
2.000237 0.042496 0.160838
1.906670 0.070374 0.213339
2.024197 0.296343 0.159639
1.933809 0.706754 0.022284
2.003979 0.189402 0.181230
0.047646 0.852974 -0.000133
1.999373 0.859263 0.220460
0.409788 0.953437 0.010885
0.151047 0.002829 0.208387
2.007821 0.839730 0.099613
2.028238 0.101937 0.203735
0.029208 0.374008 0.239970
2.006695 0.889089 0.035418
2.033046 0.667468 0.200239
1.507728 0.511869 0.126892
0.083238 0.940601 0.002440
2.017117 0.290534 0.208101
0.017834 0.389355 0.246433
2.042207 0.866436 0.076275
1.872605 0.949679 0.053035
2.005977 0.763890 0.090744
1.437686 0.502039 0.054336
1.828127 0.953747 0.053489
2.019777 0.409893 0.057595
2.007231 0.605300 0.202884
2.003610 0.932416 0.091151
2.013677 0.949706 0.108499
1.195941 0.988881 0.070799
0.946432 0.011157 0.055208
1.645070 0.024960 0.176242
2.019279 0.075744 0.157400
2.007864 0.166258 0.184835
2.007855 0.119610 0.200900
2.033492 0.829768 0.188287
2.009141 0.738372 0.125480
</DataArray>
</Points>
<PointData>
<DataArray NumberOfComponents='1' type='Int32' Name='ParticleType' format='ascii'>
1
1
1
1
1
1
1
1
1
1
1
1
1
1
1
1
1
1
1
1
1
1
1
1
1
1
1
1
1
1
1
1
1
1
1
1
1
1
1
1
1
1
1
1
1
1
1
1
1
1
1
1
1
1
1
1
1
1
1
1
1
1
1
1
1
1
1
1
1
1
1
1
1
1
1
1
1
1
1
1
1
1
1
1
1
1
1
1
1
1
1
1
1
1
1
1
1
1
1
1
1
1
1
1
1
1
1
1
1
1
1
1
1
1
1
1
1
1
1
1
1
1
1
1
1
1
1
1
1
1
1
1
1
1
1
1
1
1
1
1
1
1
1
1
1
1
1
1
1
1
1
1
1
1
1
1
1
1
1
1
1
1
1
1
1
1
1
1
1
1
1
1
1
1
1
1
1
1
1
1
1
1
1
1
1
1
1
1
1
1
1
1
1
1
1
1
1
1
1
1
1
1
1
1
1
1
1
1
1
1
1
1
1
1
1
1
1
1
1
1
1
1
1
1
1
1
1
1
1
1
1
1
1
1
1
1
1
1
1
1
1
1
1
1
1
1
1
1
1
1
1
1
1
1
1
1
1
1
1
1
1
1
1
1
1
1
1
1
1
1
1
1
1
1
1
1
1
1
1
1
1
1
1
1
1
1
1
1
1
1
1
1
1
1
1
1
1
1
1
1
1
1
1
1
1
1
1
1
1
1
1
1
1
1
1
1
1
1
1
1
1
1
1
1
1
1
1
1
1
1
1
1
1
1
1
1
1
1
1
1
1
1
1
1
1
1
1
1
1
1
1
1
1
1
1
1
1
1
1
1
1
1
1
1
1
1
1
1
1
1
1
1
1
1
1
1
1
1
1
1
1
1
1
1
1
1
1
1
1
1
1
1
1
1
1
1
1
1
1
1
1
1
1
1
1
1
1
1
1
1
1
1
1
1
1
1
1
1
1
1
1
1
1
1
1
1
1
1
1
1
1
1
1
1
1
1
1
1
1
1
1
1
1
1
1
1
1
1
1
1
1
1
1
1
1
1
1
1
1
1
1
1
1
1
1
1
1
1
1
1
1
1
1
1
1
1
1
1
1
1
1
1
1
1
1
1
1
1
1
1
1
1
1
1
1
1
1
1
1
1
</DataArray>
<DataArray NumberOfComponents='1' type='Int32' Name='ParticleID' format='ascii'>
0
1
2
3
4
5
6
7
8
9
10
11
12
13
14
15
16
17
18
19
20
21
22
23
24
25
26
27
28
29
30
31
32
33
34
35
36
37
38
39
40
41
42
43
44
45
46
47
48
49
50
51
52
53
54
55
56
57
58
59
60
61
62
63
64
65
66
67
68
69
70
71
72
73
74
75
76
77
78
79
80
81
82
83
84
85
86
87
88
89
90
91
92
93
94
95
96
97
98
99
100
101
102
103
104
105
106
107
108
109
110
111
112
113
114
115
116
117
118
119
120
121
122
123
124
125
126
127
128
129
130
131
132
133
134
135
136
137
138
139
140
141
142
143
144
145
146
147
148
149
150
151
152
153
154
155
156
157
158
159
160
161
162
163
164
165
166
167
168
169
170
171
172
173
174
175
176
177
178
179
180
181
182
183
184
185
186
187
188
189
190
191
192
193
194
195
196
197
198
199
200
201
202
203
204
205
206
207
208
209
210
211
212
213
214
215
216
217
218
219
220
221
222
223
224
225
226
227
228
229
230
231
232
233
234
235
236
237
238
239
240
241
242
243
244
245
246
247
248
249
250
251
252
253
254
255
256
257
258
259
260
261
262
263
264
265
266
267
268
269
270
271
272
273
274
275
276
277
278
279
280
281
282
283
284
285
286
287
288
289
290
291
292
293
294
295
296
297
298
299
300
301
302
303
304
305
306
307
308
309
310
311
312
313
314
315
316
317
318
319
320
321
322
323
324
325
326
327
328
329
330
331
332
333
334
335
336
337
338
339
340
341
342
343
344
345
346
347
348
349
350
351
352
353
354
355
356
357
358
359
360
361
362
363
364
365
366
367
368
369
370
371
372
373
374
375
376
377
378
379
380
381
382
383
384
385
386
387
388
389
390
391
392
393
394
395
396
397
398
399
400
401
402
403
404
405
406
407
408
409
410
411
412
413
414
415
416
417
418
419
420
421
422
423
424
425
426
427
428
429
430
431
432
433
434
435
436
437
438
439
440
441
442
443
444
445
446
447
448
449
450
451
452
453
454
455
456
457
458
459
460
461
462
463
464
465
466
467
468
469
470
471
472
473
474
475
476
477
478
479
480
481
482
483
484
485
486
487
488
489
490
491
492
493
494
495
496
497
498
499
</DataArray>
<DataArray NumberOfComponents='1' type='Int8' Name='IsActive' format='ascii'>
1
0
1
0
0
1
0
0
1
1
0
1
1
1
0
0
0
0
0
0
0
1
0
1
0
0
1
0
1
1
0
1
1
0
0
0
0
0
0
0
1
1
1
1
0
1
1
0
0
0
0
1
0
1
1
0
1
0
0
0
0
0
1
0
0
1
0
0
0
0
0
1
0
0
1
1
0
0
0
0
1
0
0
0
0
1
1
0
0
0
1
0
0
0
0
0
0
0
0
0
0
1
0
0
0
0
0
0
0
0
0
0
1
0
0
0
0
0
1
1
1
0
0
0
0
1
0
0
0
0
1
1
0
0
0
0
0
0
1
1
0
0
0
0
0
1
1
0
0
0
0
0
0
0
1
1
1
0
0
1
0
0
0
0
1
0
0
0
0
1
1
0
0
0
0
0
1
0
0
0
0
0
0
0
1
0
0
1
0
1
0
0
0
0
1
0
0
1
0
0
0
0
1
0
1
0
1
0
0
1
0
0
0
0
0
0
0
0
0
1
0
0
0
0
0
0
0
1
1
0
0
1
1
0
0
1
0
0
0
1
1
0
0
0
0
1
0
1
0
1
0
0
1
0
0
1
0
1
1
1
0
1
0
0
0
0
1
0
0
1
0
1
0
0
0
0
0
0
0
0
0
0
0
0
0
0
0
1
0
0
0
0
0
1
1
0
0
0
0
1
1
0
0
0
0
0
0
0
1
0
0
1
0
0
0
1
0
1
0
0
0
0
0
1
1
0
1
1
0
0
1
1
1
0
0
0
0
0
1
0
0
0
0
1
1
0
0
0
0
0
0
0
1
0
1
0
1
0
0
0
0
0
1
0
1
1
1
1
0
0
1
1
0
0
0
1
0
0
0
0
0
0
1
0
0
1
0
0
1
0
0
1
0
0
0
1
0
1
0
1
0
1
0
1
0
0
0
0
0
0
0
0
0
1
0
1
0
0
1
0
0
1
1
0
0
0
0
0
0
0
0
1
0
0
0
1
0
0
0
1
0
0
0
0
0
0
0
0
0
1
1
0
0
0
1
0
0
0
0
0
1
0
0
1
1
0
1
0
1
0
0
1
1
1
0
0
1
0
0
1
1
0
1
0
1
0
1
1
0
0
0
0
1
1
1
0
0
0
0
0
</DataArray>
<DataArray NumberOfComponents='1' type='Int32' Name='ParticleTetID' format='ascii'>
42187
-50400
72807
-69862
-102510
40446
-69112
-82730
90938
104201
-90622
71977
82280
86572
-82225
-93293
-91090
-74058
-82730
-98831
-12127
104155
-98411
20144
-93293
-102840
5569
-91191
76283
47710
-34180
78387
97195
-39168
-100141
-81615
-69112
-42296
-100758
-96731
32764
64323
69110
98596
-90119
94090
94294
-93119
-79211
-82225
-90337
80251
-25302
84296
23588
-96944
42117
-81404
-27681
-88996
-90622
-90337
77068
-57434
-90680
78694
-90160
-27681
-44138
-104925
-80727
78692
-90339
-96019
80251
52058
-75610
-98411
-34180
-57434
84763
-57434
-89958
-42296
-102510
79759
78935
-50400
-98306
-69112
34285
-93293
-104802
-99907
-83399
-79063
-99904
-90337
-79597
-82515
-90622
84429
-96019
-58762
-86274
-93119
-58762
-98765
-86274
-97395
-96731
-44272
82123
-24526
-82225
-92602
-87306
-96325
99871
51973
82439
-91090
-74058
-98831
-39168
14742
-98765
-39168
-17626
-96893
99790
103472
-96325
-104925
-58762
-64130
-96944
-104802
62345
106092
-95998
-92602
-88016
-12127
-70156
90141
80768
-70156
-92373
-88016
-44138
-105710
-83215
-102510
41670
51918
105756
-90160
-99904
74682
-39168
-98723
-96019
-17626
85664
-39168
-90337
-74393
-88996
84725
97137
-87514
-102840
-82225
-93819
-39168
99809
-96354
-39168
-102840
-91248
-105531
-91090
-74058
38350
-89958
-89958
97137
-96849
88713
-96019
-92373
-85990
-91248
100001
-69112
-83215
104765
-85990
-96893
-102840
-83820
45388
-64130
5813
-83215
77140
-90337
-98831
90312
-34180
-104802
-98210
-27681
-96893
-69112
-98308
-91248
-61396
42758
-70156
-46315
-96893
-74393
-102840
-100053
-82524
3366
100677
-96944
-70433
69970
34929
-99021
-104925
20335
-83399
-90231
-104802
93895
86578
-81615
-58762
-98308
-102510
32820
-90231
96718
-82515
50533
-82225
-34180
100912
-90339
-27681
100480
-84540
99980
59344
18355
-104802
25083
-42296
-93119
-98210
-42296
98707
-90131
-83399
7046
-96019
85474
-94130
-91191
-25302
-83399
-58762
-99021
-79211
-98411
-48492
-96019
-96893
-79211
-96944
-70433
-100353
79807
-96019
-92602
-105710
-61396
-34180
71998
86560
-90680
-98831
-70433
-100422
68249
68384
-24687
-82730
-102840
-81615
-90622
-83399
-27681
93834
-89958
-64130
17909
-89958
-42296
-104925
43450
-88016
104550
-27681
-57434
-92602
-94146
-90231
48447
74099
-34180
73198
70740
-83215
-91191
100092
40486
52439
-96731
-101355
-96731
-104379
-90231
98826
-98411
-94146
-104379
-44138
10270
59357
-58762
-71594
-17626
-25092
-78226
-61396
-96893
70468
-96849
103449
-25092
81063
-27681
-99052
-105531
-17626
-98831
48114
-83820
49891
74403
50594
100743
-56272
-82325
15063
92436
-91191
-105531
-83215
17071
-96325
-82515
-98308
-43214
-98306
-44138
96304
-44138
-19405
9628
-70156
-34180
70923
-101044
-48492
100307
-94130
-98308
-42296
101125
-82515
105060
-94130
37153
-93119
101509
-24687
35593
-89958
-44138
-81615
-42296
-42146
-83215
-89384
-70433
-104925
84429
-94130
68615
-99096
-69862
16372
-94130
-99911
32971
27911
-91248
-96944
-25092
-92373
-82225
-104925
-102840
-24526
78753
-102840
-24687
-19405
35799
-96944
-83399
-98210
86271
-98831
-79597
-34180
-96731
-69914
-92373
-99721
-44138
-27681
49106
56224
-44138
-101289
-24526
63105
-90680
-91090
-50400
-42296
-96944
56891
-105531
-42146
88021
3294
-88996
31898
-95447
33386
-99721
-100561
100874
35593
90162
-96019
-44138
101063
-105531
-42146
61221
97647
-91090
101063
-96019
43532
-98411
16754
54302
-46315
-78226
-79211
-79211
74929
74536
86436
-104925
-99721
-44138
-90337
-102840
</DataArray>
<DataArray NumberOfComponents='3' type='Float32' Name='vels' format='ascii'>
7.222839 -0.297406 -0.068205
22.746117 0.571945 -0.290697
1.507147 0.004918 -0.007350
20.081773 -0.217840 -0.277921
23.484112 -0.510887 0.083072
1.313239 -0.015155 0.000081
20.333378 0.277334 -0.621174
12.783111 0.221707 0.073535
0.851449 0.000021 -0.053110
0.075594 -0.010244 -0.000020
0.217718 0.013813 0.058638
1.211121 0.001167 -0.010230
7.628399 -1.616390 -0.002335
10.056237 -0.252780 -0.003557
13.642843 -0.263199 -0.225210
20.644419 -0.244898 0.011251
14.087736 0.281257 1.252631
14.293141 1.904616 0.878634
2.882659 0.105804 0.055236
19.044396 -1.244907 -0.238396
21.835456 0.067503 1.640637
0.597290 -0.014895 -0.000273
20.051412 -0.328575 -0.076616
2.243608 0.007761 0.008186
18.297037 -0.214221 0.115799
22.591256 -0.226395 0.244628
3.258767 0.213603 0.136108
21.418610 0.522880 0.667956
0.503799 -0.000565 -0.000215
4.105066 -0.105971 -0.161313
22.058982 -0.221339 0.905368
2.912934 -1.070432 -0.002940
8.969425 -0.332938 -0.062300
19.420937 -0.419907 0.689956
9.525294 1.051627 0.162017
9.873437 -0.276749 0.223623
19.690416 0.183231 -1.354405
17.262796 -0.581290 -0.236368
13.020581 -0.450925 -1.719911
13.718675 -1.653544 -1.157650
6.767376 0.195682 -0.012830
7.712912 -1.353560 0.006015
2.995614 -0.268459 0.000701
6.388577 -0.192583 0.022060
23.253517 -0.506630 -0.243077
3.271034 0.042467 0.000270
0.007588 0.014209 -0.003360
21.234953 -0.478901 -0.021576
16.783738 0.725048 0.022270
15.336051 -0.375124 2.450828
15.641460 0.592641 2.478244
-0.006765 -0.025398 0.008032
23.583462 0.705706 0.031841
0.946127 -0.001164 -0.004127
10.682294 1.397908 -0.111436
12.898903 0.342379 1.238865
8.355748 -1.389564 0.014363
13.280735 0.278610 0.164190
16.294222 1.334800 -0.294998
10.266128 -1.216054 0.712383
5.808161 -0.012437 -0.307565
15.971599 0.661878 2.362355
1.709564 0.001667 0.013729
16.469972 -0.440812 0.460427
8.803361 -0.053175 -1.230980
6.605712 0.058768 -0.005037
10.740587 0.297700 -1.133387
16.358776 2.099030 -0.512324
13.698757 -1.440865 2.243215
12.106804 0.099396 -0.173926
20.829917 -0.376475 0.351593
4.600716 3.413570 -0.004344
3.920957 0.036668 -0.138405
21.624399 0.251894 -0.102345
-0.024082 0.004359 0.001628
8.714039 -1.241118 0.021844
18.270654 -0.489875 0.186874
16.029687 -0.488661 0.199500
22.453575 -0.519201 0.546982
20.858756 -0.561026 1.745228
23.252909 -0.071293 0.022269
22.318605 -0.637696 0.060034
12.451290 1.606906 -1.239628
17.872999 -0.508012 -0.210598
21.544261 -0.576351 -0.237666
5.340725 -1.458543 0.003334
9.632899 -0.152221 -0.006717
22.850020 0.504740 0.291769
16.743318 -0.167094 -0.066923
20.405083 0.175823 -1.416689
8.304379 -5.413394 0.019633
18.397170 2.312845 0.926571
22.928140 -0.721532 0.020940
1.092060 -0.057378 -0.099089
21.674624 0.629290 -1.020716
0.117633 0.000420 0.000014
-0.227464 0.036754 0.002049
18.277976 1.459873 2.053854
15.193783 -0.200755 0.411678
8.382616 -1.056661 1.118900
9.911597 0.030293 -0.531683
3.702021 0.014042 0.004466
16.604183 0.954922 -1.554912
16.518350 0.455337 -2.328386
22.200797 0.725471 -0.532589
19.328759 -0.349707 0.354440
19.388330 0.531497 -1.176200
23.505890 -0.017541 0.011079
21.587448 0.974728 -0.641169
9.527705 -1.530749 -0.112747
16.482712 -1.531327 -0.673981
20.251569 0.364379 1.295825
2.498882 0.064492 0.002187
22.036278 0.624905 -0.469285
14.124127 -0.284270 -0.217126
10.498283 -0.075992 -0.761585
21.786999 -0.601339 -0.143358
14.298232 0.925327 0.629781
1.303455 -0.010889 -0.004324
2.863243 0.035394 0.222565
0.322097 -0.005021 0.002268
6.375299 0.134909 0.583683
14.099799 2.576252 1.169191
13.357897 -0.648771 -0.039844
17.437643 -0.326126 1.677305
8.891076 -0.214000 0.038185
23.130137 -0.019389 0.136113
16.798710 -0.409249 0.846982
21.975496 -0.398811 0.347033
11.426230 -1.001875 -1.211797
-0.048721 -0.049217 0.001927
12.655809 0.006088 0.000758
17.775444 0.811653 0.366037
14.614608 -2.401172 0.802102
16.323602 0.461840 -1.527500
20.101702 0.219511 -1.888051
10.340887 0.260235 0.538024
23.078656 -0.988561 -0.027553
4.454458 0.059372 -0.040444
0.836392 -0.525992 0.024500
22.910553 -0.665074 -0.024346
15.478941 0.434950 -2.683764
3.843808 0.025786 -0.011749
23.086697 0.462772 0.127130
20.097993 -0.001831 0.998274
7.226840 0.004852 -0.000660
5.763851 -0.069063 -0.046245
21.604291 0.016050 0.594368
20.440455 0.307652 -1.507826
3.309534 0.025848 -0.069147
16.746200 -1.534288 1.226030
10.253146 0.947459 1.119102
23.785807 0.531745 -0.031865
21.848852 0.420922 0.793156
9.962331 0.162940 -0.135889
8.686801 -0.190700 -0.061864
9.666712 0.329259 -0.020297
12.836041 0.386901 -2.273542
-0.209238 0.019446 0.003920
6.271813 -2.039612 -0.009361
17.330247 -0.352344 1.789258
6.224068 1.093664 0.955926
19.581049 0.422816 -0.371368
23.074533 -0.332614 -0.039117
0.295426 0.022546 -0.016946
16.564731 -0.331065 1.203524
19.095386 0.410807 1.106184
21.597133 -0.714607 0.164443
3.339751 0.116415 -0.031917
9.991287 -0.280535 0.027703
-0.165591 -0.000530 0.012058
18.889380 -0.021748 0.028150
23.744358 -0.623742 0.078356
6.083785 -0.114745 0.693848
21.550093 0.597724 0.177560
19.931805 -0.620684 -0.104144
0.061461 0.002219 -0.000181
22.186483 -0.580909 0.085191
18.532700 -0.364004 0.898198
22.731125 -0.410106 -0.267865
16.903104 -0.287756 -3.000994
2.618152 0.214458 0.047809
14.810948 0.363075 0.196271
10.891050 0.859468 0.466115
4.734580 -0.018076 0.007135
15.925088 1.660978 -1.064572
13.425174 2.439846 -1.661108
-0.010200 -0.000798 -0.003832
22.474392 0.693944 0.051149
8.759921 0.085016 -0.011115
16.990761 0.499263 -0.526326
17.556272 0.387056 -1.088772
22.424382 0.267650 -0.125181
19.438241 -0.645570 0.307630
1.166766 0.013707 -0.000129
19.790404 0.145941 -0.245545
23.805036 0.246133 -0.090822
10.285418 0.209327 -0.012490
17.974424 -0.188307 1.097113
11.220117 -0.667190 -0.338685
22.916248 -0.253452 -0.514480
18.818351 0.349067 -1.391396
2.775554 0.034608 0.005023
15.899244 0.166904 -2.510908
8.912756 -0.039216 -0.069421
23.480659 0.156312 -0.174877
6.997876 -0.143500 -0.001501
18.643998 0.568643 0.689326
18.384430 -0.878138 0.303210
1.518021 -0.305087 -0.000271
23.583081 -0.560089 0.024302
23.161558 -0.767744 -0.045548
20.291565 1.561776 -0.694303
16.401910 -0.321120 -0.053734
10.492033 -1.280470 -1.330174
21.410000 0.626257 0.310330
18.442322 0.652253 -0.220620
17.690202 -0.279277 -2.290119
18.769647 0.377517 0.667154
1.595101 -0.011128 -0.000550
17.750980 -0.020871 0.508239
17.540848 0.458101 -1.060460
8.106153 -1.043966 -1.428472
20.417662 -0.645471 0.231195
23.602854 -0.615112 0.038929
12.160696 -1.012091 0.189499
18.576584 -0.501876 -0.358508
1.750029 2.920627 -0.044949
6.651370 0.075378 0.018841
13.702585 0.396953 0.289287
6.917325 -0.024386 0.013341
0.030975 -0.033839 0.011020
9.351101 -0.611550 0.010960
21.328316 0.562810 0.238438
12.057405 0.044548 -0.097366
4.409398 0.060710 0.010600
22.195289 0.732663 -0.247530
2.252395 -0.033993 0.023985
22.344953 -0.609651 0.782143
9.472918 -0.415304 -0.179264
8.200177 0.919170 -0.015802
15.872573 -0.624415 -0.376809
21.407858 0.824238 0.337188
17.297617 0.488402 2.433505
23.606339 -0.372745 -0.031862
4.788613 0.291166 0.325690
13.166489 -0.210343 -1.750043
4.846204 0.085437 -0.007667
9.399261 -0.801023 0.807560
7.672167 0.700111 0.017008
14.328609 -0.354769 1.438157
21.838368 -0.661170 -0.191753
5.156997 -0.005570 -0.022111
1.967034 -0.040918 -0.033000
15.580226 -0.323972 0.093963
7.366459 2.293074 -0.015233
21.053992 -0.422851 0.024730
0.038485 0.002488 0.045548
2.058998 0.048664 -0.000050
10.905064 6.947730 0.011250
23.244983 -0.730652 -0.131282
2.490962 0.186937 -0.000095
20.722970 -0.207133 -0.102217
22.750940 -0.531753 0.033055
20.545453 -0.083357 -0.102342
20.285490 -0.903266 0.046184
5.336631 -3.864817 -0.013106
21.801124 0.497681 -0.757091
19.879728 0.548398 -0.714806
22.952464 -3.706411 0.015439
18.274489 0.518023 -0.272507
-0.057874 -0.002564 -0.004246
22.049778 0.519534 -0.195881
19.783170 0.573937 0.196976
23.087101 0.531150 0.110178
20.744513 0.554739 -1.416790
18.689961 0.464014 -2.153891
22.952633 -0.348073 -0.012363
15.385875 1.081334 -0.018862
20.312842 -0.228192 -0.737240
18.555870 0.457150 -0.153506
18.423548 1.307541 -2.021391
10.524621 -1.063843 -1.645949
16.597472 0.870109 0.031602
13.153952 0.251382 1.635128
15.026963 -0.710945 -2.419758
15.862789 -1.859636 -1.900831
1.701460 0.041695 -0.024072
20.159521 0.339274 -0.414015
7.726323 0.053641 -0.995650
12.441263 0.840484 0.891875
21.204620 0.562607 -0.004813
21.937366 -0.464106 0.805875
7.500321 7.390582 -0.073778