<VTKFile type='UnstructuredGrid' version='1.0' byte_order='LittleEndian' header_type='UInt64'>
<UnstructuredGrid>
<Piece NumberOfCells='500' NumberOfPoints='500'>
<Points>
<DataArray NumberOfComponents='3' type='Float32' Name='Position' format='ascii'>
0.128800 0.612369 0.226362
0.237532 0.397151 0.116784
0.037503 0.980505 0.222783
0.167304 0.767462 0.184496
0.238323 0.738595 0.105625
0.044292 0.191206 0.247703
0.195296 0.300643 0.073867
0.099339 0.793117 0.208551
0.131427 0.613818 0.224886
0.097415 0.767194 0.225478
0.071248 0.248990 0.035839
0.029968 0.005036 0.057112
0.118599 0.540735 0.218026
0.065213 0.255257 0.236563
0.108914 0.690104 0.213855
0.186618 0.882661 0.149950
0.101724 0.325397 0.203219
0.138987 0.926928 0.160673
0.015975 0.794907 0.219224
0.187206 0.117530 0.112961
0.229776 0.283860 0.145195
0.015814 0.097595 0.236495
0.198944 0.691128 0.078991
0.038055 0.991587 0.150457
0.196935 0.876575 0.131021
0.222778 0.690840 0.119233
0.226643 0.500358 0.100077
0.222588 0.367161 0.159598
0.029384 0.846078 0.003300
0.070419 0.935549 0.217915
0.237700 0.662810 0.152058
0.044820 0.310449 0.246333
0.071158 0.959623 0.184608
0.123809 0.632912 0.180735
0.102216 0.954324 0.127211
0.147126 0.588007 0.201808
0.191304 0.295322 0.078245
0.193166 0.143559 0.123368
0.061070 0.567378 0.046957
0.135038 0.096870 0.068817
0.089844 0.093305 0.215525
0.064037 0.291580 0.238336
0.056220 0.293696 0.006711
0.047238 0.041113 0.033737
0.249541 0.638962 0.115626
0.046281 0.525875 0.007944
0.026621 0.123891 0.021980
0.226336 0.692673 0.166055
0.115655 0.927567 0.107389
0.130252 0.638208 0.197849
0.190264 0.845415 0.171677
0.019758 0.670068 0.220768
0.249531 0.372271 0.131726
0.029217 0.846943 0.004114
0.102456 0.478092 0.228070
0.035192 0.392272 0.206864
0.060916 0.854994 0.230859
0.124162 0.458768 0.040442
0.175987 0.904486 0.120654
0.077163 0.048684 0.164955
0.101982 0.254950 0.027865
0.189402 0.828958 0.173856
0.041991 0.993948 0.192549
0.180642 0.605188 0.188776
0.148288 0.647846 0.043380
0.045535 0.723558 0.004503
0.027631 0.389877 0.030724
0.188613 0.894989 0.128577
0.094152 0.108579 0.203890
0.172720 0.114391 0.155949
0.189841 0.184105 0.158991
0.112854 0.467372 0.026215
0.098329 0.959747 0.113725
0.203748 0.838179 0.088779
0.041693 0.653330 0.243596
0.023607 0.578465 0.030636
0.138999 0.662905 0.056607
0.187486 0.685157 0.068353
0.231177 0.626598 0.155587
0.224451 0.571712 0.150291
0.013307 0.206885 0.215951
0.236713 0.594869 0.150234
0.156948 0.906376 0.070159
0.211466 0.140160 0.120508
0.243178 0.748877 0.122012
0.063594 0.256406 0.238325
0.039856 0.964496 0.185469
0.232307 0.399688 0.134124
0.143512 0.091225 0.104955
0.205772 0.278251 0.077773
0.085407 0.584829 0.021282
0.187664 0.883450 0.124140
0.247215 0.622883 0.137124
0.066755 0.249659 0.039944
0.231463 0.414302 0.105784
0.043848 0.613583 0.248720
0.011397 0.555077 0.249115
0.176741 0.774072 0.193630
0.111447 0.832423 0.049510
0.090387 0.148893 0.201142
0.148507 0.254656 0.047127
0.014786 0.985108 0.180083
0.234539 0.790961 0.102246
0.226166 0.423475 0.084169
0.226427 0.779011 0.133762
0.209133 0.692399 0.176955
0.240281 0.434565 0.096341
0.233966 0.265001 0.124507
0.223449 0.775779 0.128621
0.082002 0.053823 0.117132
0.201630 0.129974 0.091636
0.213017 0.467447 0.179099
0.026080 0.909085 0.240518
0.236020 0.449296 0.103417
0.116066 0.691006 0.215066
0.138090 0.702545 0.042152
0.228481 0.572056 0.098327
0.170855 0.871768 0.171606
0.018163 0.992931 0.223899
0.220357 0.498787 0.081112
0.013500 0.039976 0.006716
0.058096 0.322337 0.213377
0.152673 0.923938 0.155400
0.156497 0.081207 0.124643
0.108419 0.652977 0.186317
0.095313 0.897431 0.030021
0.227125 0.218802 0.135818
0.141669 0.623228 0.191627
0.230765 0.752590 0.099643
0.095380 0.124525 0.038549
0.135451 0.171887 0.225841
0.015238 0.502002 0.224346
0.197667 0.859964 0.166552
0.154895 0.072327 0.150461
0.229778 0.434220 0.078961
0.146930 0.315867 0.053456
0.168629 0.437438 0.197326
0.234642 0.613371 0.126614
0.045397 0.983814 0.099788
0.097213 0.491370 0.235041
0.246182 0.565630 0.122702
0.141613 0.692672 0.052053
0.143064 0.357774 0.039577
0.236216 0.339621 0.144047
0.220988 0.720324 0.158734
0.038754 0.968163 0.190123
0.059815 0.019648 0.101873
0.197434 0.722946 0.180531
0.137611 0.318165 0.046447
0.116812 0.334547 0.039003
0.152042 0.133721 0.168644
0.135274 0.864737 0.204511
0.239561 0.304417 0.133284
0.229116 0.742649 0.144001
0.100517 0.955817 0.089477
0.083614 0.958144 0.173440
0.074522 0.039008 0.160754
0.061672 0.434563 0.034961
0.022270 0.567611 0.248073
0.133710 0.560469 0.224036
0.155359 0.650241 0.180747
0.084002 0.948497 0.174305
0.197407 0.817747 0.093059
0.227240 0.769613 0.114429
0.091474 0.145933 0.223626
0.152830 0.645403 0.177468
0.174016 0.815714 0.182801
0.215137 0.552785 0.094961
0.091178 0.047843 0.166798
0.044769 0.036041 0.168056
0.037300 0.988885 0.126545
0.173690 0.168584 0.065450
0.221515 0.705916 0.135597
0.113829 0.686471 0.216739
0.217978 0.448251 0.154604
0.196204 0.615158 0.180230
0.020822 0.986162 0.004321
0.235698 0.540832 0.123393
0.144080 0.667681 0.184763
0.226637 0.697366 0.110113
0.214144 0.595299 0.096398
0.128241 0.856216 0.042552
0.113271 0.351498 0.208987
0.127107 0.937751 0.171371
0.022977 0.014714 0.077505
0.140903 0.894943 0.090830
0.155976 0.910882 0.073465
0.038029 0.989566 0.138955
0.241612 0.413662 0.125586
0.099749 0.782158 0.237262
0.221108 0.793267 0.092036
0.175995 0.373241 0.061373
0.225791 0.268427 0.150238
0.207477 0.654809 0.075781
0.016714 0.885582 0.247358
0.196340 0.278215 0.074625
0.236845 0.295790 0.125957
0.073394 0.047393 0.156602
0.220300 0.226461 0.163711
0.118531 0.135046 0.037086
0.218858 0.698264 0.102748
0.189769 0.736572 0.072930
0.068720 0.897025 0.020940
0.172567 0.267086 0.054575
0.066407 0.034013 0.190066
0.249893 0.283927 0.118418
0.020112 0.156871 0.235271
0.199729 0.820343 0.173609
0.179199 0.114498 0.144318
0.031710 0.475422 0.241578
0.241915 0.629737 0.131798
0.231949 0.623029 0.126921
0.212395 0.842600 0.128756
0.176921 0.903824 0.123384
0.121182 0.097370 0.044478
0.229555 0.277966 0.101933
0.229569 0.428484 0.155816
0.100621 0.666884 0.062866
0.215637 0.329212 0.174132
0.029091 0.025787 0.023928
0.222931 0.737745 0.156854
0.190844 0.465331 0.062738
0.103480 0.152208 0.026313
0.244287 0.546047 0.107858
0.226023 0.695408 0.143166
0.020855 0.051572 0.127819
0.194885 0.588916 0.074559
0.041494 0.535511 0.013582
0.079080 0.027299 0.098686
0.171691 0.432534 0.203283
0.134321 0.218739 0.054161
0.039637 0.709940 0.239914
0.074263 0.596792 0.013729
0.229366 0.231115 0.136945
0.109932 0.065780 0.168665
0.006584 0.971006 0.216718
0.234545 0.418686 0.099432
0.127915 0.594428 0.036206
0.244580 0.552034 0.132959
0.068270 0.928291 0.204637
0.049142 0.113516 0.022558
0.117370 0.620821 0.209502
0.161725 0.421868 0.066380
0.109441 0.397922 0.185621
0.236808 0.717864 0.113341
0.172966 0.507121 0.063555
0.098607 0.628519 0.044014
0.054916 0.981104 0.159729
0.089415 0.121487 0.213698
0.026983 0.208384 0.022425
0.099039 0.618334 0.199665
0.247682 0.646652 0.142931
0.036626 0.972236 0.140437
0.101376 0.946623 0.114460
0.181131 0.899253 0.136364
0.106901 0.413472 0.228288
0.216880 0.521717 0.104549
0.006786 0.996735 0.038344
0.035382 0.793140 0.006854
0.012204 0.619936 0.217294
0.239207 0.577068 0.140067
0.027903 0.623779 0.241626
0.201417 0.142801 0.115038
0.222300 0.670685 0.153943
0.203589 0.830101 0.151332
0.201106 0.139450 0.149760
0.051703 0.394914 0.010012
0.235415 0.478569 0.110116
0.206418 0.386273 0.074355
0.072870 0.777258 0.230820
0.175042 0.866866 0.088358
0.035338 0.190102 0.014991
0.234632 0.345117 0.092495
0.106248 0.395928 0.172602
0.239264 0.375902 0.111338
0.227156 0.408227 0.082334
0.185649 0.416264 0.074758
0.227661 0.255106 0.108389
0.172410 0.903675 0.103984
0.209175 0.682456 0.078248
0.185153 0.865716 0.081397
0.193686 0.851612 0.091796
0.085676 0.119939 0.040237
0.115481 0.923857 0.105104
0.150450 0.415474 0.199171
0.086017 0.199527 0.030415
0.162661 0.122541 0.069159
0.031983 0.964486 0.238391
0.192545 0.821283 0.076414
0.003909 0.744604 0.029156
0.143147 0.863565 0.211336
0.214877 0.338650 0.164976
0.249468 0.664197 0.130442
0.093543 0.481701 0.210310
0.078418 0.067850 0.035042
0.106622 0.638232 0.039780
0.188075 0.102737 0.148607
0.092346 0.200176 0.038005
0.254729 0.519291 0.112384
0.102062 0.486796 0.226804
0.211587 0.510824 0.166038
0.202344 0.166601 0.095031
0.143454 0.808761 0.206195
0.243230 0.675383 0.139945
0.128910 0.624803 0.214751
0.124322 0.293393 0.041993
0.229095 0.421610 0.103328
0.130638 0.948111 0.124415
0.020577 0.143146 0.028625
0.133733 0.924242 0.070159
0.182034 0.281182 0.060309
0.104457 0.490833 0.017294
0.125170 0.925235 0.081951
0.203545 0.156616 0.133967
0.165242 0.091974 0.151174
0.018032 0.506603 0.234896
0.151803 0.343634 0.043685
0.075767 0.318794 0.232372
0.160225 0.917123 0.118236
0.214187 0.598899 0.167288
0.136139 0.682099 0.042276
0.204604 0.722721 0.182933
0.095013 0.608066 0.037490
0.051234 0.979038 0.192817
0.039047 0.426705 0.016371
0.240247 0.655757 0.147864
0.029230 0.374476 0.240409
0.094573 0.063022 0.038408
0.232397 0.270623 0.118579
0.160897 0.386361 0.177387
0.012592 0.516092 0.243363
0.024815 0.434371 0.228182
0.042573 0.039025 0.045308
0.170945 0.123002 0.076343
0.009082 0.606526 0.000344
0.159544 0.111067 0.077119
0.129091 0.554047 0.043598
0.134110 0.616178 0.031850
0.008086 0.280942 0.236314
0.220738 0.695047 0.096571
0.194951 0.734249 0.188316
0.144316 0.533392 0.043268
0.171115 0.113094 0.169911
0.036344 0.961830 0.068545
0.023380 0.130961 0.025773
0.219436 0.410247 0.078123
0.006438 0.891044 0.249188
0.227968 0.738084 0.124287
0.197575 0.524207 0.071994
0.118958 0.547931 0.200793
0.217187 0.321110 0.172378
0.098645 0.113575 0.044051
0.015277 0.982592 0.218578
0.235773 0.442623 0.139594
0.075272 0.898879 0.223672
0.213974 0.532595 0.084100
0.039711 0.009891 0.206239
0.167054 0.915453 0.136558
0.126035 0.839880 0.204313
0.100209 0.891186 0.044614
0.245732 0.741311 0.123452
0.191282 0.110333 0.137923
0.088840 0.952540 0.199312
0.229184 0.731680 0.086830
0.044779 0.027863 0.042992
0.066883 0.020300 0.162137
0.219648 0.484222 0.083871
0.017343 0.746779 0.011454
0.205003 0.197640 0.079270
0.106910 0.273789 0.216038
0.176907 0.504368 0.065782
0.029567 0.537965 0.226839
0.222799 0.373022 0.166109
0.071437 0.858098 0.036177
0.231425 0.311192 0.113936
0.248072 0.492152 0.113478
0.133940 0.878207 0.182200
0.098605 0.143084 0.216156
0.163387 0.415296 0.186627
0.147004 0.934164 0.141856
0.183663 0.108483 0.103219
0.143495 0.127671 0.185013
0.065733 0.037862 0.208898
0.188220 0.130681 0.173273
0.229647 0.476762 0.143045
0.101909 0.954263 0.089452
0.229210 0.759271 0.157404
0.250908 0.631148 0.136395
0.054197 0.975733 0.095153
0.022194 0.001354 0.184133
0.142424 0.879834 0.058051
0.025587 0.485592 0.006861
0.245662 0.388211 0.103931
0.194551 0.430704 0.187286
0.212687 0.154684 0.133431
0.110780 0.633820 0.028189
0.113152 0.122371 0.207828
0.019593 0.985092 0.018929
0.228608 0.370590 0.080038
0.114352 0.449514 0.219290
0.223464 0.659713 0.167012
0.018766 0.015288 0.079578
0.213329 0.181623 0.098232
0.014687 0.962214 0.014498
0.153182 0.911740 0.077360
0.091400 0.104894 0.207075
0.148831 0.592396 0.206571
0.211960 0.139590 0.148851
0.186269 0.583620 0.191654
0.232922 0.320586 0.121091
0.122987 0.458124 0.207538
0.148776 0.235939 0.051252
0.114824 0.063050 0.172067
0.034614 0.994610 0.171904
0.214833 0.332344 0.088095
0.098102 0.076863 0.034468
0.234055 0.432075 0.143497
0.189702 0.788729 0.176042
0.186186 0.504847 0.180763
0.212679 0.333203 0.089104
0.158950 0.744478 0.055276
0.036377 0.097256 0.014595
0.073705 0.902371 0.218572
0.223196 0.621357 0.088981
0.168813 0.441835 0.197320
0.186927 0.531036 0.061304
0.207902 0.338953 0.073729
0.099541 0.649273 0.224441
0.130653 0.102418 0.159720
0.230476 0.682349 0.111822
0.194067 0.463635 0.073228
0.054909 0.036496 0.192955
0.227037 0.683504 0.149142
0.217606 0.210543 0.104046
0.253782 0.482072 0.132822
0.049205 0.537526 0.014577
0.093127 0.398841 0.198491
0.221056 0.411379 0.095971
0.218578 0.832723 0.140347
0.103403 0.406110 0.025061
0.171790 0.089464 0.120670
0.123184 0.797811 0.045459
0.242836 0.651084 0.128442
0.202393 0.127287 0.089367
0.242095 0.481515 0.113545
0.158835 0.317185 0.048619
0.150160 0.238603 0.195643
0.124471 0.131129 0.200246
0.186869 0.899934 0.111211
0.019282 0.620660 0.004909
0.012846 0.689418 0.246492
0.113700 0.114787 0.179916
0.097662 0.287974 0.031931
0.218780 0.461003 0.080759
0.034828 0.639598 0.011129
0.089788 0.641922 0.043423
0.106818 0.333512 0.221306
0.236011 0.399555 0.133008
0.205714 0.140609 0.153764
0.147869 0.422413 0.208875
0.038665 0.022511 0.040214
0.124942 0.852134 0.045462
0.201509 0.589725 0.176784
0.040256 0.570764 0.015092
0.106552 0.518615 0.217490
0.100572 0.047538 0.161499
0.103206 0.084847 0.212615
0.219731 0.359443 0.159879
0.106720 0.676308 0.020146
0.148626 0.237807 0.182396
0.031124 0.846181 0.002010
0.099389 0.843121 0.220884
0.020201 0.958271 0.011486
0.024553 0.003482 0.207694
0.224203 0.802856 0.097318
0.112021 0.121927 0.199567
0.029095 0.372932 0.238575
0.097471 0.868788 0.036637
0.174309 0.601774 0.192209
0.244956 0.507824 0.126712
0.019752 0.945938 0.001197
0.132121 0.334525 0.205446
0.019095 0.386887 0.244671
0.186667 0.845744 0.078046
0.080269 0.944829 0.054104
0.219075 0.711722 0.090006
0.174386 0.504526 0.064501
0.081697 0.947422 0.054477
0.190197 0.466725 0.064064
0.171568 0.559969 0.200106
0.132443 0.922015 0.089317
0.123795 0.943090 0.108359
0.037662 0.977855 0.070876
0.055412 0.020828 0.057836
0.076752 0.038881 0.174943
0.139569 0.090012 0.157148
0.170246 0.200851 0.184462
0.145509 0.138683 0.198832
0.131926 0.785599 0.185822
0.242879 0.668435 0.123975
</DataArray>
</Points>
<PointData>
<DataArray NumberOfComponents='1' type='Int32' Name='ParticleType' format='ascii'>
1
1
1
1
1
1
1
1
1
1
1
1
1
1
1
1
1
1
1
1
1
1
1
1
1
1
1
1
1
1
1
1
1
1
1
1
1
1
1
1
1
1
1
1
1
1
1
1
1
1
1
1
1
1
1
1
1
1
1
1
1
1
1
1
1
1
1
1
1
1
1
1
1
1
1
1
1
1
1
1
1
1
1
1
1
1
1
1
1
1
1
1
1
1
1
1
1
1
1
1
1
1
1
1
1
1
1
1
1
1
1
1
1
1
1
1
1
1
1
1
1
1
1
1
1
1
1
1
1
1
1
1
1
1
1
1
1
1
1
1
1
1
1
1
1
1
1
1
1
1
1
1
1
1
1
1
1
1
1
1
1
1
1
1
1
1
1
1
1
1
1
1
1
1
1
1
1
1
1
1
1
1
1
1
1
1
1
1
1
1
1
1
1
1
1
1
1
1
1
1
1
1
1
1
1
1
1
1
1
1
1
1
1
1
1
1
1
1
1
1
1
1
1
1
1
1
1
1
1
1
1
1
1
1
1
1
1
1
1
1
1
1
1
1
1
1
1
1
1
1
1
1
1
1
1
1
1
1
1
1
1
1
1
1
1
1
1
1
1
1
1
1
1
1
1
1
1
1
1
1
1
1
1
1
1
1
1
1
1
1
1
1
1
1
1
1
1
1
1
1
1
1
1
1
1
1
1
1
1
1
1
1
1
1
1
1
1
1
1
1
1
1
1
1
1
1
1
1
1
1
1
1
1
1
1
1
1
1
1
1
1
1
1
1
1
1
1
1
1
1
1
1
1
1
1
1
1
1
1
1
1
1
1
1
1
1
1
1
1
1
1
1
1
1
1
1
1
1
1
1
1
1
1
1
1
1
1
1
1
1
1
1
1
1
1
1
1
1
1
1
1
1
1
1
1
1
1
1
1
1
1
1
1
1
1
1
1
1
1
1
1
1
1
1
1
1
1
1
1
1
1
1
1
1
1
1
1
1
1
1
1
1
1
1
1
1
1
1
1
1
1
1
1
1
1
1
1
1
1
1
1
1
1
1
1
1
1
1
1
1
1
1
1
1
1
1
1
1
1
1
1
1
1
1
1
1
1
1
1
1
1
1
1
1
1
1
1
1
1
1
</DataArray>
<DataArray NumberOfComponents='1' type='Int32' Name='ParticleID' format='ascii'>
0
1
2
3
4
5
6
7
8
9
10
11
12
13
14
15
16
17
18
19
20
21
22
23
24
25
26
27
28
29
30
31
32
33
34
35
36
37
38
39
40
41
42
43
44
45
46
47
48
49
50
51
52
53
54
55
56
57
58
59
60
61
62
63
64
65
66
67
68
69
70
71
72
73
74
75
76
77
78
79
80
81
82
83
84
85
86
87
88
89
90
91
92
93
94
95
96
97
98
99
100
101
102
103
104
105
106
107
108
109
110
111
112
113
114
115
116
117
118
119
120
121
122
123
124
125
126
127
128
129
130
131
132
133
134
135
136
137
138
139
140
141
142
143
144
145
146
147
148
149
150
151
152
153
154
155
156
157
158
159
160
161
162
163
164
165
166
167
168
169
170
171
172
173
174
175
176
177
178
179
180
181
182
183
184
185
186
187
188
189
190
191
192
193
194
195
196
197
198
199
200
201
202
203
204
205
206
207
208
209
210
211
212
213
214
215
216
217
218
219
220
221
222
223
224
225
226
227
228
229
230
231
232
233
234
235
236
237
238
239
240
241
242
243
244
245
246
247
248
249
250
251
252
253
254
255
256
257
258
259
260
261
262
263
264
265
266
267
268
269
270
271
272
273
274
275
276
277
278
279
280
281
282
283
284
285
286
287
288
289
290
291
292
293
294
295
296
297
298
299
300
301
302
303
304
305
306
307
308
309
310
311
312
313
314
315
316
317
318
319
320
321
322
323
324
325
326
327
328
329
330
331
332
333
334
335
336
337
338
339
340
341
342
343
344
345
346
347
348
349
350
351
352
353
354
355
356
357
358
359
360
361
362
363
364
365
366
367
368
369
370
371
372
373
374
375
376
377
378
379
380
381
382
383
384
385
386
387
388
389
390
391
392
393
394
395
396
397
398
399
400
401
402
403
404
405
406
407
408
409
410
411
412
413
414
415
416
417
418
419
420
421
422
423
424
425
426
427
428
429
430
431
432
433
434
435
436
437
438
439
440
441
442
443
444
445
446
447
448
449
450
451
452
453
454
455
456
457
458
459
460
461
462
463
464
465
466
467
468
469
470
471
472
473
474
475
476
477
478
479
480
481
482
483
484
485
486
487
488
489
490
491
492
493
494
495
496
497
498
499
</DataArray>
<DataArray NumberOfComponents='1' type='Int8' Name='IsActive' format='ascii'>
1
1
1
1
1
1
1
1
1
1
1
1
1
1
1
1
1
1
1
1
1
1
1
1
1
1
1
1
1
1
1
1
1
1
1
1
1
1
1
1
1
1
1
1
1
1
1
1
1
1
1
1
1
1
1
1
1
1
1
1
1
1
1
1
1
1
1
1
1
1
1
1
1
1
1
1
1
1
1
1
1
1
1
1
1
1
1
1
1
1
1
1
1
1
1
1
1
1
1
1
1
1
1
1
1
1
1
1
1
1
1
1
1
1
1
1
1
1
1
1
1
1
1
1
1
1
1
1
1
1
1
1
1
1
1
1
1
1
1
1
1
1
1
1
1
1
1
1
1
1
1
1
1
1
1
1
1
1
1
1
1
1
1
1
1
1
1
1
1
1
1
1
1
1
1
1
1
1
1
1
1
1
1
1
1
1
1
1
1
1
1
1
1
1
1
1
1
1
1
1
1
1
1
1
1
1
1
1
1
1
1
1
1
1
1
1
1
1
1
1
1
1
1
1
1
1
1
1
1
1
1
1
1
1
1
1
1
1
1
1
1
1
1
1
1
1
1
1
1
1
1
1
1
1
1
1
1
1
1
1
1
1
1
1
1
1
1
1
1
1
1
1
1
1
1
1
1
1
1
1
1
1
1
1
1
1
1
1
1
1
1
1
1
1
1
1
1
1
1
1
1
1
1
1
1
1
1
1
1
1
1
1
1
1
1
1
1
1
1
1
1
1
1
1
1
1
1
1
1
1
1
1
1
1
1
1
1
1
1
1
1
1
1
1
1
1
1
1
1
1
1
1
1
1
1
1
1
1
1
1
1
1
1
1
1
1
1
1
1
1
1
1
1
1
1
1
1
1
1
1
1
1
1
1
1
1
1
1
1
1
1
1
1
1
1
1
1
1
1
1
1
1
1
1
1
1
1
1
1
1
1
1
1
1
1
1
1
1
1
1
1
1
1
1
1
1
1
1
1
1
1
1
1
1
1
1
1
1
1
1
1
1
1
1
1
1
1
1
1
1
1
1
1
1
1
1
1
1
1
1
1
1
1
1
1
1
1
1
1
1
1
1
1
1
1
1
1
1
1
1
1
1
1
1
1
1
1
1
1
1
1
1
1
1
1
1
1
1
1
1
</DataArray>
<DataArray NumberOfComponents='1' type='Int32' Name='ParticleTetID' format='ascii'>
74641
52269
17189
104786
40519
92208
6233
103252
74641
42640
33734
97354
60245
25271
3811
3397
51877
21738
100932
58777
24018
101388
1948
97137
152
37346
41048
53306
100560
76627
24976
71655
68009
14703
7464
28044
19883
79818
45785
34629
42915
59417
50948
28494
7379
83524
94294
23012
11485
14703
4981
80251
32489
100560
105686
62075
1094
87936
152
104708
52698
89571
59701
35025
62484
85198
95019
152
42915
52125
49986
87936
11485
5666
80251
77003
32442
4092
38959
97
99295
38959
74987
79818
40519
25271
59701
73996
14048
79325
97531
152
7379
33734
77231
94137
99903
104786
38917
45690
105541
101500
13905
77231
5781
33596
52837
24018
5781
17510
47830
4244
101139
52837
3811
97058
28762
45071
101245
41048
101233
8354
21738
36253
7426
36977
5551
14703
11927
9177
61170
100092
4981
36253
27594
5096
10735
28189
73298
105686
103035
62484
67654
49355
27859
59701
41215
20766
5096
5096
48846
67371
69340
40519
28202
89697
104709
37808
99903
52095
14703
25514
34938
11927
77643
14703
89571
52316
104708
17468
97137
36841
37346
3811
34777
84224
101445
103035
3811
38482
18910
96167
51221
11657
101509
2944
74987
97137
36795
103252
5421
23918
5014
101894
71593
79325
87970
104709
5551
16649
47079
15387
90410
71690
15033
12613
100903
89571
47954
91813
7379
28189
1284
152
51117
24018
34777
35445
45912
106111
52047
104753
20983
103035
23012
54400
76557
83524
41215
44354
87485
69970
98539
5014
11116
101245
77231
31833
103035
76627
35818
27626
31592
69745
38482
50733
104747
81789
42915
99275
27626
47041
62462
7464
152
93013
41048
101512
101022
100807
31406
100807
91640
24976
1284
42205
95019
53229
56372
22275
10833
85474
62794
89082
52269
77231
23918
14571
957
1948
596
5666
9177
11485
44354
6757
24031
100592
34938
100743
67371
46525
47697
105687
31131
104747
47954
6757
103036
105686
101529
42529
103251
24976
14703
11253
77231
21738
94294
74987
21208
77006
89676
79818
53507
100092
5096
95134
21225
40481
62484
20766
104746
68009
74099
47697
101063
30912
24018
79681
100092
79729
28494
47830
101354
64417
30367
31833
98826
47079
20766
60044
52125
95278
94294
77231
101139
40519
13476
60245
45912
9177
101245
34777
39533
41048
73590
21225
105755
36977
40519
70327
103166
12109
28494
89748
82384
100743
40311
7184
50733
77116
53306
76283
78812
28573
58662
45690
44354
21738
58777
48846
12444
42205
24180
28202
16216
7379
73298
101043
73560
90210
52269
57018
73130
104747
48305
101321
19022
92680
24976
101509
42529
101224
74987
42915
28044
42205
60959
78812
105978
76641
104708
97770
19022
66539
34777
104787
4244
21548
66809
37497
39533
58286
10735
13476
19022
14135
48846
47079
104753
15033
23012
18811
3705
44153
73060
69715
1284
55721
73678
2487
10694
47830
52837
45726
9590
48305
152
101354
100054
48305
11253
53229
76206
104749
89189
53306
42205
44354
106112
84296
40481
88021
67689
104708
66685
53306
38457
9590
100560
50273
101224
98033
5421
48305
101063
77594
28044
35003
95063
73852
101063
5666
94803
38482
50733
94803
104753
45369
89676
11485
95278
20417
104708
36253
8460
48305
52573
23012
</DataArray>
<DataArray NumberOfComponents='3' type='Float32' Name='vels' format='ascii'>
16.176765 -0.095605 0.174956
23.391936 -0.034700 -0.010419
2.081569 -0.061017 -0.024732
18.081258 -0.114513 0.172024
22.359140 0.148925 -0.006957
0.674220 0.018896 0.046956
18.977686 -0.005222 -0.085474
11.988980 -0.247749 0.145926
16.324716 -0.099839 0.143582
7.659081 -0.164159 0.069346
8.690973 0.125692 -0.195667
0.856633 -0.013649 0.079913
10.235623 -0.012312 0.057029
4.526437 0.057359 0.019052
6.539914 -0.040907 0.033838
17.200778 0.155407 0.053444
13.279611 0.120480 0.266237
11.120824 0.101624 0.045585
-0.042806 -0.020548 -0.001838
15.078409 -0.114533 -0.094656
22.331146 -0.100103 0.025654
0.270291 0.088774 -0.009201
19.655691 -0.007865 -0.106621
0.389167 0.008705 -0.025971
17.074466 0.169936 -0.002374
19.890853 0.040860 0.067669
22.623699 -0.011920 -0.047071
21.096931 -0.033240 0.049934
0.619577 -0.040963 -0.011006
6.556354 -0.113294 0.106044
22.272043 0.059961 0.038207
1.206251 0.042090 0.050768
7.035617 -0.005560 0.079526
8.478451 -0.003746 0.036085
9.782413 0.063402 0.012640
15.113535 -0.035836 0.144569
20.459755 0.221286 -0.183588
19.155251 -0.151234 -0.000123
9.821623 -0.072179 -0.255636
7.910298 -0.088732 -0.026966
15.221544 0.156500 0.236845
7.597238 0.241213 -0.107181
7.438888 0.246892 0.327387
4.509957 0.147323 0.104685
23.220287 0.044989 -0.016046
0.131715 0.009779 -0.006145
0.060605 0.032179 -0.000292
23.106540 0.055739 0.016349
5.765038 0.036144 -0.032993
10.215832 -0.023549 0.084859
17.523710 0.111526 0.056652
0.029297 -0.033306 0.009587
23.381170 -0.056520 0.006798
0.806057 -0.061636 -0.012515
15.214669 0.010301 0.218773
12.743707 0.127471 -1.733834
5.654165 -0.273075 0.205722
11.761737 0.023817 -0.117057
19.711163 0.130687 -0.040538
9.456505 0.024910 0.023384
8.863839 0.120857 -0.042557
18.976089 0.027736 0.114043
1.217406 0.023987 -0.033189
13.879727 -0.005232 0.077339
18.129145 -0.103512 -0.336816
-0.037326 -0.039951 -0.006002
0.408033 -0.044906 -0.024640
18.392589 0.146713 -0.030154
5.168463 -0.013450 0.011035
15.097678 -0.134313 0.063969
18.623176 -0.144208 0.069826
9.277655 0.006281 -0.099757
12.388689 0.060505 0.044861
19.451364 0.116927 -0.057067
-0.105236 0.005908 0.000075
0.022550 0.044484 -0.007069
16.256569 -0.092635 -0.146292
19.459951 -0.006257 -0.109903
21.542658 -0.010731 0.069254
22.468518 0.008661 0.037665
0.131172 0.001210 -0.009453
22.864766 0.010700 0.029896
14.713306 0.143141 -0.064350
19.233157 -0.156996 0.016452
22.628614 0.078459 0.029182
3.899369 0.047517 0.012343
6.305200 -0.473331 -0.390917
22.108022 -0.052579 0.013504
16.938384 -0.161149 0.009231
18.918244 -0.023681 -0.102461
7.001056 -0.056545 -0.076027
18.375054 0.163482 -0.006312
23.268450 0.038371 0.011843
7.961337 0.099729 -0.097869
22.966242 -0.025985 -0.023232
0.357836 -0.012930 0.003816
0.080240 0.055698 -0.015259
16.755709 -0.076501 0.149666
10.633389 -0.044863 -0.116035
5.894976 0.143900 0.058065
13.672010 0.016398 -0.086408
0.532269 -0.017053 -0.111304
21.053763 0.178812 -0.016366
23.051159 -0.001629 -0.046019
22.191672 0.111082 0.011376
18.715191 0.058907 0.051019
23.511943 -0.000440 0.015219
21.306069 -0.109751 0.036466
21.783683 0.087721 -0.033507
11.151402 0.061669 0.016288
18.916731 -0.153170 -0.013487
20.301234 -0.013441 0.046045
2.316653 -0.367436 -0.055478
22.827211 -0.017872 -0.025270
10.503749 -0.081616 0.077201
13.067317 -0.068071 -0.118565
22.738239 -0.014128 -0.057948
16.389604 0.103979 0.069701
0.431326 -0.003254 -0.096670
19.275605 -0.013401 -0.026673
1.267245 0.287776 0.071916
14.766664 0.553064 -2.694759
13.573505 0.144914 0.065121
15.738291 -0.155491 0.008751
4.524541 -0.011189 0.014334
7.264866 -0.011448 -0.091470
22.103912 -0.115918 0.013511
12.221560 -0.009953 0.064823
22.680954 0.007759 -0.008754
13.203851 0.599549 -0.045487
14.004219 0.049474 0.165710
0.037878 0.019925 -0.007558
17.547744 0.139922 0.043660
12.993597 -0.138691 -0.035498
23.383336 0.008668 -0.042089
10.967436 0.033965 -0.081406
16.711957 0.039961 0.290239
23.482714 0.018029 -0.010489
2.383181 0.047055 -0.024377
19.787417 -0.028560 0.388202
23.122013 0.032838 0.013558
14.921595 -0.085472 -0.149268
12.400549 0.035763 -0.095382
22.835420 -0.051949 0.022490
21.275522 0.033780 0.070291
5.511281 -0.370125 -0.355572
8.155224 0.521127 0.048269
18.550051 0.010975 0.091849
9.565606 0.020508 -0.052534
7.553089 -0.005015 -0.024281
17.484840 -0.162589 0.024409
11.491844 0.038818 0.089044
23.353619 -0.050856 -0.007755
21.018962 0.003823 0.101908
8.599024 0.073240 -0.089919
8.243611 0.035037 0.032330
11.169172 0.864081 -0.314325
6.614979 0.012946 -0.095703
0.450909 0.015518 0.001692
14.572087 -0.025463 0.136237
13.279207 -0.038092 0.088995
9.314249 0.018322 0.091997
20.595539 0.094973 -0.045821
22.457085 0.109184 -0.001390
13.656130 0.890233 -0.526629
12.865084 -0.035305 0.090780
16.962303 0.031112 0.111052
21.914305 0.001888 -0.050812
9.114483 -0.027711 0.028198
9.766893 1.871359 -0.564089
2.748225 0.011280 -0.012010
16.856571 -0.076878 -0.090594
23.111140 0.079664 0.007749
9.011808 -0.064828 0.054404
23.283967 -0.013585 0.023576
18.646551 -0.002304 0.066827
0.269151 0.000804 0.000007
22.869577 0.003494 -0.035695
17.487075 -0.037351 0.103634
20.930171 0.025229 0.072159
22.633271 -0.003497 -0.055320
11.246716 0.003638 -0.114243
13.213167 0.108070 0.160682
9.873457 0.093714 0.076376
0.197378 -0.005729 0.040121
14.161160 0.117759 -0.102106
14.592573 0.137166 -0.066905
0.459289 -0.006393 -0.032702
23.241281 -0.041648 0.009096
19.742859 -0.276314 0.278249
19.309597 0.147238 -0.019495
18.371307 0.081529 -0.214331
21.218366 -0.091206 0.038547
21.883612 0.044082 -0.038399
0.703187 -0.032921 0.032753
20.370119 0.162260 -0.151255
22.977890 -0.067492 -0.017891
3.171206 -0.001488 0.012809
20.469703 -0.129664 0.033035
10.071043 0.111661 -0.093787
21.045194 -0.012923 -0.104408
18.238800 -0.078721 -0.175398
5.780844 -0.193431 -0.062671
15.930773 0.073428 -0.137191
5.990810 0.086244 0.017765
23.022739 -0.108012 -0.009060
0.311370 0.067098 -0.002906
18.139376 0.083955 0.083621
13.438134 -0.145787 0.077701
2.711751 0.010672 -0.035804
23.401199 0.036033 0.011644
23.483586 0.015919 -0.008205
17.174326 0.151374 -0.020066
19.611387 0.127061 -0.039817
8.947431 -0.064311 -0.082350
21.873160 -0.121248 -0.024705
20.622789 -0.011073 0.070713
7.001319 -0.043565 -0.047151
22.370729 0.002723 0.065349
1.879982 0.366456 0.162554
19.991791 0.092270 0.042518
18.468942 -0.002887 -0.084619
7.687203 0.023933 -0.007117
23.040095 -0.007416 -0.039867
22.706351 0.037592 0.030084
2.780007 0.037382 0.020217
21.073596 -0.027194 -0.102416
1.181415 0.012165 -0.069766
12.164962 1.187159 -0.024365
14.242841 -0.001002 0.097097
14.304597 0.142827 -0.119137
0.134586 -0.030311 0.008844
7.888085 -0.049354 -0.195869
22.288689 -0.090478 0.016691
9.820551 -0.042451 0.083449
0.287364 -0.018345 -0.080553
22.531738 -0.027998 -0.028209
11.995044 -0.051274 -0.121671
23.226750 0.029655 0.008539
7.593403 -0.105048 0.136444
3.813476 0.154022 -0.072618
10.198019 -0.077664 0.151311
15.641830 0.025353 -0.127997
4.506731 0.038493 0.013230
22.776133 0.054203 -0.024141
18.065366 -0.006224 -0.143079
7.843734 -0.059794 -0.068245
4.238158 0.025714 -0.057079
9.230306 0.134517 0.100786
0.745330 0.038771 -0.011734
16.682543 -0.176580 0.274412
22.391926 0.092945 0.014824
6.152163 -0.531379 -0.143198
10.881042 0.040551 0.029475
18.294341 0.166131 0.028243
7.189849 0.048206 0.042090
21.809709 -0.001194 -0.051067
0.555681 -0.036802 0.154122
0.804522 -0.043506 -0.054018
0.154079 0.025423 -0.027179
23.491614 0.030856 -0.004852
0.588786 -0.028819 0.030609
19.556728 -0.133101 0.003174
23.215388 -0.038753 -0.034312
20.031779 0.105836 0.043508
18.769660 -0.161006 0.048962
0.827492 -0.003366 -0.043052
23.073067 -0.018177 -0.017298
20.430261 -0.017087 -0.043719
6.181503 -0.090283 0.039293
17.505051 0.160629 -0.064854
0.054891 0.006881 -0.007714
23.458269 -0.025851 -0.003857
5.200006 0.016464 0.009231
23.186376 -0.044099 -0.019209
22.879279 -0.013490 -0.036920
21.267271 0.015243 -0.124581
22.303777 -0.098951 -0.028992
19.876924 0.162061 -0.034199
20.089194 0.013600 -0.069789
15.688162 0.135822 -0.077414
16.545249 0.141837 -0.049572
11.385621 0.416774 -0.178680
5.708055 0.035211 -0.029903
13.101508 0.033168 0.084800
13.925443 0.557161 0.203442
16.112684 -0.117704 -0.085203
1.540312 -0.028738 -0.168311
16.977620 0.132263 -0.057166
0.047078 0.014192 0.010684
10.316655 0.073377 0.034864
23.266054 0.053694 0.049462
23.329941 0.073191 0.008292
18.420813 0.004328 0.356502
11.183757 0.921302 0.452087
8.489378 -0.047503 -0.055575
18.007543 -0.116382 0.070451
15.104947 0.535236 0.038430
23.355611 0.000409 -0.014194
19.390882 -0.016869 0.322392
17.405673 -0.005787 0.155255
19.333947 -0.125225 -0.041128
13.127382 -0.074346 0.111853
23.106143 0.074568 0.015482
9.067956 -0.017468 0.061185
12.759180 0.076047 -0.138977
22.819571 -0.022296 -0.028401
11.000914 0.085271 0.000529
0.076561 -0.008434 -0.006740