<VTKFile type='UnstructuredGrid' version='1.0' byte_order='LittleEndian' header_type='UInt64'>
<UnstructuredGrid>
<Piece NumberOfCells='500' NumberOfPoints='500'>
<Points>
<DataArray NumberOfComponents='3' type='Float32' Name='Position' format='ascii'>
0.311457 0.613120 0.226654
0.685999 0.382815 0.117765
0.074004 0.980194 0.222867
0.488175 0.771879 0.184818
0.677039 0.755059 0.106247
0.058128 0.191702 0.247758
0.563236 0.293449 0.074658
0.362984 0.794833 0.208543
0.313869 0.614171 0.225303
0.287157 0.767820 0.226797
0.154199 0.248915 0.035816
0.060751 0.006485 0.059340
0.335381 0.540834 0.219362
0.169949 0.255668 0.236489
0.352953 0.691534 0.214726
0.546666 0.887832 0.150534
0.354775 0.324164 0.204143
0.351647 0.928270 0.160435
0.016510 0.793910 0.219384
0.526008 0.113723 0.112544
0.678421 0.265732 0.144991
0.015815 0.098002 0.236394
0.586411 0.699703 0.078087
0.058376 0.991437 0.149649
0.564504 0.881518 0.130625
0.675149 0.709281 0.118524
0.662296 0.499419 0.099971
0.654036 0.354458 0.159197
0.032490 0.845945 0.003443
0.170098 0.936656 0.218178
0.686576 0.681025 0.151619
0.116853 0.312439 0.242492
0.197374 0.960434 0.184383
0.462861 0.635281 0.181196
0.286852 0.955409 0.127154
0.424086 0.589184 0.202016
0.582843 0.285958 0.078139
0.596376 0.135846 0.122612
0.328625 0.567830 0.046705
0.361842 0.094984 0.067963
0.248108 0.091704 0.216032
0.180184 0.292338 0.238744
0.132680 0.294400 0.005669
0.137681 0.040173 0.031986
0.689899 0.656561 0.115937
0.047188 0.525785 0.006846
0.027042 0.125876 0.022102
0.628155 0.704453 0.165814
0.359317 0.929313 0.106610
0.392060 0.639793 0.198568
0.538987 0.850409 0.171524
0.019527 0.669740 0.221148
0.703264 0.354478 0.131914
0.033094 0.847023 0.003642
0.259813 0.478403 0.227764
0.283481 0.392987 0.207636
0.181690 0.854877 0.230493
0.387020 0.457917 0.040193
0.498038 0.907645 0.120018
0.198967 0.048664 0.165322
0.200506 0.254246 0.027413
0.553479 0.835122 0.173919
0.063759 0.993683 0.193089
0.452244 0.607905 0.189289
0.380076 0.649699 0.043243
0.065609 0.723024 0.004055
0.226130 0.390413 0.029630
0.539563 0.898122 0.128922
0.303308 0.107528 0.204035
0.514465 0.110146 0.155942
0.594330 0.175081 0.158147
0.290858 0.467730 0.026226
0.275182 0.960741 0.113875
0.577214 0.844335 0.087821
0.041770 0.652675 0.243255
0.187409 0.577869 0.029511
0.466797 0.666144 0.056002
0.540511 0.691403 0.068036
0.660319 0.640596 0.155287
0.665003 0.579804 0.150425
0.012931 0.207399 0.215988
0.676012 0.607674 0.150448
0.429175 0.908667 0.069205
0.609623 0.131967 0.120537
0.695040 0.768930 0.121911
0.159963 0.256796 0.239703
0.157154 0.964536 0.185520
0.679276 0.386236 0.134705
0.456312 0.088573 0.105707
0.602529 0.268314 0.078118
0.268050 0.585003 0.020950
0.552521 0.888263 0.124142
0.696706 0.640053 0.136830
0.320745 0.249413 0.039392
0.681183 0.399769 0.106917
0.050833 0.613616 0.247992
0.015339 0.556208 0.249011
0.496974 0.779325 0.194374
0.369631 0.834754 0.048683
0.175605 0.147969 0.201843
0.397490 0.252041 0.047056
0.019462 0.985619 0.178873
0.664037 0.805880 0.102008
0.647346 0.416856 0.084476
0.666353 0.793863 0.134742
0.562342 0.699513 0.177261
0.673194 0.425722 0.095977
0.689039 0.247210 0.124782
0.672326 0.791656 0.128806
0.306129 0.051587 0.117190
0.540607 0.125719 0.091579
0.579558 0.465380 0.178944
0.070732 0.907333 0.241009
0.679395 0.441196 0.103435
0.351370 0.691839 0.215404
0.379415 0.704845 0.042163
0.665648 0.579657 0.097254
0.506546 0.876224 0.171593
0.021014 0.992344 0.223310
0.596624 0.498952 0.080360
0.036496 0.043607 0.005796
0.197173 0.323209 0.213115
0.356433 0.924627 0.155322
0.458478 0.078951 0.124546
0.405044 0.653660 0.187273
0.252731 0.897416 0.029101
0.663234 0.203548 0.135556
0.458458 0.626276 0.192162
0.667648 0.768144 0.099676
0.313117 0.122794 0.037695
0.222543 0.170058 0.226402
0.014971 0.502161 0.224189
0.556014 0.864696 0.166736
0.416115 0.070204 0.150545
0.639777 0.425096 0.078679
0.462249 0.312027 0.052485
0.446552 0.436277 0.197309
0.686953 0.627319 0.126305
0.122621 0.984316 0.099777
0.204277 0.491841 0.235650
0.695263 0.574528 0.121814
0.434001 0.695807 0.051354
0.423880 0.356082 0.040191
0.682376 0.322754 0.144015
0.652556 0.735363 0.159683
0.154168 0.968727 0.190865
0.149606 0.019081 0.101409
0.564308 0.730780 0.180432
0.382971 0.315479 0.046739
0.367186 0.333508 0.038219
0.487527 0.129719 0.169628
0.349212 0.867499 0.204775
0.696081 0.284468 0.132649
0.677944 0.758761 0.143628
0.272221 0.957642 0.088482
0.244336 0.959724 0.173443
0.091123 0.039110 0.160387
0.315401 0.434421 0.033331
0.029239 0.568034 0.248335
0.370659 0.560525 0.224832
0.502219 0.653950 0.180764
0.259499 0.949873 0.175322
0.584895 0.825803 0.093029
0.666213 0.785551 0.114046
0.234290 0.145725 0.223953
0.524727 0.649067 0.177514
0.477188 0.819659 0.182819
0.648358 0.558097 0.094858
0.236238 0.047382 0.166677
0.167390 0.034675 0.168563
0.039791 0.988542 0.126680
0.459602 0.165472 0.065033
0.674508 0.723927 0.136171
0.347301 0.688257 0.216815
0.646609 0.444382 0.153647
0.519931 0.619484 0.180426
0.026094 0.985917 0.004881
0.684483 0.549267 0.124119
0.499087 0.671688 0.185288
0.669768 0.713989 0.109642
0.652414 0.604383 0.095805
0.351463 0.858410 0.042142
0.391652 0.348982 0.209698
0.316801 0.938109 0.171165
0.022755 0.015122 0.077660
0.465977 0.898325 0.090128
0.427847 0.914059 0.072263
0.037900 0.988672 0.139449
0.688484 0.401132 0.125588
0.239170 0.782390 0.237769
0.641181 0.806815 0.092246
0.520265 0.368882 0.061088
0.663136 0.251979 0.149722
0.531252 0.660814 0.075195
0.030287 0.884321 0.247086
0.548179 0.270911 0.074736
0.693680 0.275717 0.126474
0.166045 0.046186 0.157681
0.624534 0.213925 0.164216
0.314131 0.133775 0.036667
0.656799 0.715052 0.102060
0.566911 0.745602 0.072737
0.203202 0.898554 0.019603
0.449196 0.263840 0.054629
0.195843 0.033129 0.189633
0.703658 0.262639 0.118468
0.020877 0.157606 0.235409
0.567793 0.827134 0.174405
0.531251 0.109945 0.143877
0.144429 0.475396 0.242409
0.695613 0.646521 0.132051
0.683411 0.638754 0.126626
0.614098 0.851233 0.128327
0.500728 0.906502 0.124224
0.278020 0.094918 0.044280
0.667574 0.262316 0.102524
0.655547 0.420721 0.156044
0.450644 0.670083 0.062412
0.598702 0.319458 0.174052
0.060155 0.026426 0.024243
0.647104 0.751006 0.158528
0.531062 0.464150 0.062439
0.257177 0.150920 0.025741
0.686898 0.552582 0.107281
0.658275 0.710806 0.143661
0.210571 0.049549 0.128237
0.586217 0.595505 0.074308
0.138184 0.535840 0.014924
0.190885 0.026427 0.097858
0.442180 0.430985 0.202958
0.411857 0.216135 0.053609
0.039078 0.708944 0.239904
0.195080 0.596509 0.013216
0.672368 0.216323 0.136848
0.306562 0.064069 0.168563
0.053050 0.968098 0.214003
0.671472 0.407892 0.099310
0.348843 0.595095 0.035402
0.694645 0.561273 0.132230
0.113620 0.928770 0.206030
0.156989 0.113823 0.021617
0.370781 0.622280 0.210147
0.525863 0.418939 0.066591
0.455609 0.396700 0.186013
0.692244 0.737061 0.113056
0.509009 0.507115 0.063683
0.368109 0.629486 0.043152
0.127462 0.980817 0.159344
0.269483 0.120435 0.213396
0.029613 0.208657 0.021941
0.352899 0.619872 0.200728
0.687079 0.664574 0.142851
0.185640 0.974099 0.141741
0.299172 0.947320 0.115005
0.518144 0.902298 0.136682
0.252836 0.413817 0.229590
0.659153 0.524630 0.103506
0.030752 0.995303 0.044465
0.039465 0.793269 0.006657
0.011748 0.620989 0.217559
0.677532 0.586875 0.138988
0.031637 0.623238 0.242458
0.598542 0.134790 0.115390
0.656784 0.687210 0.154627
0.608253 0.838013 0.150842
0.564889 0.134769 0.149991
0.066408 0.394806 0.009782
0.681887 0.474071 0.109604
0.587166 0.379590 0.074040
0.240637 0.776875 0.230784
0.524763 0.871624 0.088109
0.035736 0.189741 0.015010
0.668736 0.330612 0.092453
0.499704 0.393248 0.172871
0.686903 0.360270 0.112059
0.633529 0.401213 0.081841
0.527516 0.413387 0.074723
0.674149 0.238553 0.107771
0.486879 0.906820 0.104099
0.601822 0.693143 0.077905
0.522263 0.871502 0.081350
0.566331 0.857191 0.091253
0.298968 0.118637 0.038641
0.368634 0.925910 0.104308
0.425209 0.414255 0.198691
0.325589 0.198382 0.029927
0.470145 0.119087 0.068556
0.061881 0.964613 0.238356
0.554630 0.828869 0.076655
0.003688 0.744590 0.029530
0.344156 0.865356 0.211416
0.574216 0.329871 0.165050
0.686144 0.681234 0.130554
0.275000 0.481670 0.211123
0.211104 0.066792 0.034145
0.361551 0.638893 0.038067
0.510460 0.098924 0.148189
0.324271 0.199043 0.037403
0.696411 0.521833 0.112236
0.254078 0.486794 0.227070
0.613099 0.511304 0.165025
0.603971 0.158142 0.095053
0.358105 0.810743 0.206875
0.689276 0.693717 0.139937
0.373399 0.625911 0.214827
0.382230 0.291295 0.041545
0.668827 0.410619 0.102976
0.325553 0.948471 0.124488
0.051231 0.144534 0.029333
0.332208 0.925394 0.070311
0.450488 0.277426 0.059630
0.246772 0.489649 0.017378
0.370849 0.926387 0.080838
0.610350 0.148089 0.134423
0.475195 0.088017 0.151073
0.017901 0.507340 0.235053
0.396178 0.342242 0.042834
0.200641 0.319056 0.233403
0.400411 0.917957 0.118142
0.624730 0.607573 0.167784
0.393309 0.684343 0.041847
0.571110 0.731155 0.184042
0.317151 0.607979 0.037001
0.144603 0.979458 0.193976
0.039404 0.426367 0.016724
0.678780 0.672477 0.147467
0.029216 0.373880 0.240202
0.240270 0.063103 0.038845
0.689020 0.252049 0.118754
0.558918 0.381580 0.178067
0.012568 0.515477 0.243782
0.033708 0.435741 0.227401
0.137558 0.039491 0.044064
0.486981 0.119991 0.075656
0.008779 0.606611 0.000113
0.475667 0.107304 0.077219
0.368699 0.553723 0.043024
0.371277 0.617405 0.031888
0.007838 0.281034 0.235737
0.663425 0.711109 0.096601
0.525246 0.740006 0.188784
0.384527 0.533973 0.042809
0.497313 0.109314 0.169737
0.160822 0.961546 0.068293
0.023839 0.130157 0.025690
0.627002 0.403371 0.077858
0.009668 0.890405 0.249204
0.684265 0.758246 0.124387
0.556240 0.525345 0.071614
0.425443 0.548025 0.200999
0.603345 0.310754 0.172935
0.316591 0.112069 0.043491
0.017697 0.982491 0.217479
0.678104 0.434269 0.139657
0.238331 0.899837 0.224549
0.628958 0.535588 0.084069
0.073857 0.010257 0.206506
0.449829 0.916500 0.137325
0.354838 0.842368 0.204995
0.298344 0.892921 0.043910
0.693688 0.762853 0.123650
0.519867 0.107494 0.137459
0.179838 0.953070 0.201034
0.652954 0.746054 0.086933
0.118364 0.028066 0.042357
0.140686 0.020160 0.162748
0.628193 0.483178 0.084113
0.016829 0.746947 0.011257
0.550564 0.190609 0.078355
0.364361 0.271635 0.215994
0.504888 0.504802 0.064818
0.029119 0.536545 0.226458
0.629256 0.362436 0.165597
0.267083 0.858147 0.034968
0.685081 0.292047 0.113467
0.688546 0.492270 0.113535
0.426770 0.880511 0.182080
0.265156 0.141715 0.216937
0.519972 0.412095 0.187248
0.384882 0.934985 0.140581
0.511727 0.105251 0.103622
0.431389 0.123559 0.185267
0.173725 0.037584 0.210118
0.509910 0.126577 0.173847
0.673053 0.473069 0.142143
0.273389 0.956617 0.088436
0.651045 0.774565 0.157531
0.697255 0.650909 0.136366
0.161921 0.975901 0.094081
0.032580 0.000367 0.182880
0.360050 0.881823 0.058276
0.117312 0.484351 0.009778
0.690328 0.373861 0.104177
0.505928 0.428542 0.187415
0.620867 0.145647 0.132917
0.308748 0.634221 0.027942
0.293882 0.121553 0.208926
0.043013 0.983318 0.021033
0.575954 0.363097 0.080373
0.291516 0.448659 0.219645
0.569220 0.668466 0.167721
0.018107 0.015148 0.080446
0.627838 0.170385 0.097931
0.021597 0.961305 0.014435
0.437100 0.914589 0.078086
0.276505 0.103572 0.208328
0.433464 0.594321 0.207141
0.588066 0.132117 0.148857
0.483739 0.586008 0.192026
0.688373 0.302283 0.121693
0.331013 0.458219 0.207395
0.459422 0.232102 0.050867
0.304099 0.061745 0.171896
0.090948 0.989677 0.168936
0.636098 0.319351 0.088612
0.262786 0.075716 0.033783
0.675400 0.424859 0.142746
0.510836 0.794058 0.176422
0.553288 0.505555 0.180977
0.638359 0.320555 0.089348
0.472090 0.750054 0.054475
0.152444 0.099980 0.018079
0.196782 0.903770 0.219183
0.638347 0.631682 0.088922
0.417965 0.440995 0.197122
0.514334 0.531021 0.060627
0.602743 0.327896 0.074533
0.292475 0.649281 0.224070
0.455840 0.099363 0.160711
0.681118 0.699399 0.111314
0.553212 0.461036 0.074209
0.185147 0.035456 0.193953
0.652665 0.697186 0.149240
0.643639 0.198053 0.104556
0.697606 0.480155 0.132219
0.217073 0.537200 0.016566
0.378089 0.397595 0.200089
0.659378 0.399621 0.096309
0.623917 0.842183 0.140864
0.310322 0.405510 0.024146
0.487525 0.086824 0.121230
0.367796 0.800091 0.043982
0.695365 0.669399 0.129071
0.539830 0.122792 0.089522
0.687823 0.480668 0.114050
0.428031 0.314815 0.048300
0.460308 0.234285 0.195788
0.362982 0.129604 0.200934
0.509585 0.902543 0.110805
0.042674 0.620027 0.004348
0.032643 0.688538 0.247226
0.409824 0.112040 0.180190
0.298419 0.287024 0.030809
0.620334 0.456857 0.080796
0.034215 0.639748 0.011624
0.363667 0.642834 0.042942
0.313278 0.332814 0.221214
0.685556 0.385586 0.132453
0.563060 0.134671 0.153064
0.410853 0.421430 0.209421
0.115882 0.026153 0.041662
0.365662 0.854512 0.045534
0.552010 0.592955 0.176647
0.039832 0.571827 0.014889
0.333981 0.518646 0.218479
0.287907 0.045922 0.161215
0.271569 0.083235 0.212532
0.653981 0.346183 0.159823
0.320593 0.677370 0.019566
0.506060 0.232582 0.182991
0.034809 0.846653 0.001240
0.287125 0.844459 0.221764
0.020871 0.957124 0.011804
0.044087 0.003079 0.207720
0.649491 0.815317 0.097671
0.323085 0.120412 0.200047
0.029506 0.373168 0.238735
0.265991 0.870117 0.035955
0.489596 0.604142 0.191686
0.683201 0.508839 0.126717
0.023736 0.944944 0.001239
0.389930 0.332681 0.205632
0.018882 0.387436 0.244594
0.541720 0.851766 0.077664
0.205859 0.946612 0.053437
0.645921 0.724539 0.089699
0.513913 0.505514 0.063997
0.207316 0.949023 0.053086
0.538042 0.465470 0.063723
0.443597 0.561769 0.200760
0.382322 0.924357 0.089673
0.360432 0.944928 0.108235
0.135607 0.976177 0.072054
0.118058 0.021489 0.057128
0.171935 0.038980 0.175111
0.454499 0.087773 0.157607
0.469195 0.196840 0.184626
0.392463 0.136578 0.200159
0.448579 0.789332 0.186384
0.694466 0.687578 0.125077
</DataArray>
</Points>
<PointData>
<DataArray NumberOfComponents='1' type='Int32' Name='ParticleType' format='ascii'>
1
1
1
1
1
1
1
1
1
1
1
1
1
1
1
1
1
1
1
1
1
1
1
1
1
1
1
1
1
1
1
1
1
1
1
1
1
1
1
1
1
1
1
1
1
1
1
1
1
1
1
1
1
1
1
1
1
1
1
1
1
1
1
1
1
1
1
1
1
1
1
1
1
1
1
1
1
1
1
1
1
1
1
1
1
1
1
1
1
1
1
1
1
1
1
1
1
1
1
1
1
1
1
1
1
1
1
1
1
1
1
1
1
1
1
1
1
1
1
1
1
1
1
1
1
1
1
1
1
1
1
1
1
1
1
1
1
1
1
1
1
1
1
1
1
1
1
1
1
1
1
1
1
1
1
1
1
1
1
1
1
1
1
1
1
1
1
1
1
1
1
1
1
1
1
1
1
1
1
1
1
1
1
1
1
1
1
1
1
1
1
1
1
1
1
1
1
1
1
1
1
1
1
1
1
1
1
1
1
1
1
1
1
1
1
1
1
1
1
1
1
1
1
1
1
1
1
1
1
1
1
1
1
1
1
1
1
1
1
1
1
1
1
1
1
1
1
1
1
1
1
1
1
1
1
1
1
1
1
1
1
1
1
1
1
1
1
1
1
1
1
1
1
1
1
1
1
1
1
1
1
1
1
1
1
1
1
1
1
1
1
1
1
1
1
1
1
1
1
1
1
1
1
1
1
1
1
1
1
1
1
1
1
1
1
1
1
1
1
1
1
1
1
1
1
1
1
1
1
1
1
1
1
1
1
1
1
1
1
1
1
1
1
1
1
1
1
1
1
1
1
1
1
1
1
1
1
1
1
1
1
1
1
1
1
1
1
1
1
1
1
1
1
1
1
1
1
1
1
1
1
1
1
1
1
1
1
1
1
1
1
1
1
1
1
1
1
1
1
1
1
1
1
1
1
1
1
1
1
1
1
1
1
1
1
1
1
1
1
1
1
1
1
1
1
1
1
1
1
1
1
1
1
1
1
1
1
1
1
1
1
1
1
1
1
1
1
1
1
1
1
1
1
1
1
1
1
1
1
1
1
1
1
1
1
1
1
1
1
1
1
1
1
1
1
1
1
1
1
1
1
1
1
1
1
1
1
1
1
1
1
1
1
1
1
1
1
1
1
1
</DataArray>
<DataArray NumberOfComponents='1' type='Int32' Name='ParticleID' format='ascii'>
0
1
2
3
4
5
6
7
8
9
10
11
12
13
14
15
16
17
18
19
20
21
22
23
24
25
26
27
28
29
30
31
32
33
34
35
36
37
38
39
40
41
42
43
44
45
46
47
48
49
50
51
52
53
54
55
56
57
58
59
60
61
62
63
64
65
66
67
68
69
70
71
72
73
74
75
76
77
78
79
80
81
82
83
84
85
86
87
88
89
90
91
92
93
94
95
96
97
98
99
100
101
102
103
104
105
106
107
108
109
110
111
112
113
114
115
116
117
118
119
120
121
122
123
124
125
126
127
128
129
130
131
132
133
134
135
136
137
138
139
140
141
142
143
144
145
146
147
148
149
150
151
152
153
154
155
156
157
158
159
160
161
162
163
164
165
166
167
168
169
170
171
172
173
174
175
176
177
178
179
180
181
182
183
184
185
186
187
188
189
190
191
192
193
194
195
196
197
198
199
200
201
202
203
204
205
206
207
208
209
210
211
212
213
214
215
216
217
218
219
220
221
222
223
224
225
226
227
228
229
230
231
232
233
234
235
236
237
238
239
240
241
242
243
244
245
246
247
248
249
250
251
252
253
254
255
256
257
258
259
260
261
262
263
264
265
266
267
268
269
270
271
272
273
274
275
276
277
278
279
280
281
282
283
284
285
286
287
288
289
290
291
292
293
294
295
296
297
298
299
300
301
302
303
304
305
306
307
308
309
310
311
312
313
314
315
316
317
318
319
320
321
322
323
324
325
326
327
328
329
330
331
332
333
334
335
336
337
338
339
340
341
342
343
344
345
346
347
348
349
350
351
352
353
354
355
356
357
358
359
360
361
362
363
364
365
366
367
368
369
370
371
372
373
374
375
376
377
378
379
380
381
382
383
384
385
386
387
388
389
390
391
392
393
394
395
396
397
398
399
400
401
402
403
404
405
406
407
408
409
410
411
412
413
414
415
416
417
418
419
420
421
422
423
424
425
426
427
428
429
430
431
432
433
434
435
436
437
438
439
440
441
442
443
444
445
446
447
448
449
450
451
452
453
454
455
456
457
458
459
460
461
462
463
464
465
466
467
468
469
470
471
472
473
474
475
476
477
478
479
480
481
482
483
484
485
486
487
488
489
490
491
492
493
494
495
496
497
498
499
</DataArray>
<DataArray NumberOfComponents='1' type='Int8' Name='IsActive' format='ascii'>
1
1
1
1
1
1
1
1
1
1
1
1
1
1
1
1
1
1
1
1
1
1
1
1
1
1
1
1
1
1
1
1
1
1
1
1
1
1
1
1
1
1
1
1
1
1
1
1
1
1
1
1
1
1
1
1
1
1
1
1
1
1
1
1
1
1
1
1
1
1
1
1
1
1
1
1
1
1
1
1
1
1
1
1
1
1
1
1
1
1
1
1
1
1
1
1
1
1
1
1
1
1
1
1
1
1
1
1
1
1
1
1
1
1
1
1
1
1
1
1
1
1
1
1
1
1
1
1
1
1
1
1
1
1
1
1
1
1
1
1
1
1
1
1
1
1
1
1
1
1
1
1
1
1
1
1
1
1
1
1
1
1
1
1
1
1
1
1
1
1
1
1
1
1
1
1
1
1
1
1
1
1
1
1
1
1
1
1
1
1
1
1
1
1
1
1
1
1
1
1
1
1
1
1
1
1
1
1
1
1
1
1
1
1
1
1
1
1
1
1
1
1
1
1
1
1
1
1
1
1
1
1
1
1
1
1
1
1
1
1
1
1
1
1
1
1
1
1
1
1
1
1
1
1
1
1
1
1
1
1
1
1
1
1
1
1
1
1
1
1
1
1
1
1
1
1
1
1
1
1
1
1
1
1
1
1
1
1
1
1
1
1
1
1
1
1
1
1
1
1
1
1
1
1
1
1
1
1
1
1
1
1
1
1
1
1
1
1
1
1
1
1
1
1
1
1
1
1
1
1
1
1
1
1
1
1
1
1
1
1
1
1
1
1
1
1
1
1
1
1
1
1
1
1
1
1
1
1
1
1
1
1
1
1
1
1
1
1
1
1
1
1
1
1
1
1
1
1
1
1
1
1
1
1
1
1
1
1
1
1
1
1
1
1
1
1
1
1
1
1
1
1
1
1
1
1
1
1
1
1
1
1
1
1
1
1
1
1
1
1
1
1
1
1
1
1
1
1
1
1
1
1
1
1
1
1
1
1
1
1
1
1
1
1
1
1
1
1
1
1
1
1
1
1
1
1
1
1
1
1
1
1
1
1
1
1
1
1
1
1
1
1
1
1
1
1
1
1
1
1
1
1
1
1
1
1
1
1
1
1
1
1
1
1
1
1
1
1
1
1
</DataArray>
<DataArray NumberOfComponents='1' type='Int32' Name='ParticleTetID' format='ascii'>
1002
2941
69708
27553
8162
88115
23966
11625
1002
53
76641
20417
46680
97062
27008
2858
20854
15536
100932
87983
22328
101388
43343
81789
2858
10942
2865
64482
100560
61353
10056
91889
26799
17357
7644
103441
23966
6124
31438
2765
35020
37795
85795
105280
35246
83524
94294
83419
4115
8484
56239
80251
16252
100560
21952
27274
87380
35045
5210
66501
93879
25636
68009
2656
6001
51000
64191
8381
66525
17043
50126
4718
2921
25690
80251
41089
37223
35455
25564
79940
99295
34667
7885
10974
8191
32883
764
2941
3365
6720
104524
8381
4673
66107
14898
97152
99903
35278
49428
6387
8608
101500
40841
13673
17298
77328
14898
28504
17298
41575
63932
255
39533
12244
27008
13160
67607
6207
101245
14932
42736
11135
15654
6674
8484
22210
6365
2293
7649
57287
19653
100092
7342
10092
44637
30424
36568
54407
94009
14876
14980
5053
15721
57904
5425
764
97937
8131
30481
46432
876
8435
21126
8191
33138
95343
104708
43614
99903
82128
29488
5978
6139
17298
4892
52280
6590
45840
56590
70427
97137
38158
8162
4578
16021
40870
101445
24580
37810
8162
64552
37712
26345
13287
101509
30615
7885
97137
2941
2965
34216
85290
28504
5779
71593
23966
21126
92341
24217
97416
7649
247
29535
39412
16211
21126
100903
27390
1847
105979
4673
11571
19542
5210
72579
38721
9262
17177
61084
20417
31009
7648
95082
85405
21140
4887
5564
61062
56621
36568
9226
69970
43966
6365
33308
49095
14898
40356
5717
101524
92267
22163
78055
35892
8162
18268
77460
52957
35020
99275
53238
4673
1612
25890
6207
99899
27066
99980
101022
100807
79940
100807
12236
23008
31766
2212
58252
2865
77477
2965
15468
85474
29930
52998
66649
13673
78055
40051
4109
43343
15468
25690
68955
4115
36568
29587
40344
69708
48016
100743
8435
27782
4673
7414
26634
79163
71763
13797
85405
23453
34801
75038
30832
4673
22163
30481
14898
33471
2502
12291
39412
74629
25189
19940
6674
100092
65255
9994
14646
102072
5426
8131
22646
764
74099
11571
101063
22635
22130
101603
100092
38229
105280
25533
101354
25533
9458
40290
98826
8162
18537
3466
876
105597
94294
44637
101139
8191
11061
11283
83775
57287
101245
2941
93152
57231
15033
29683
3858
49897
8191
2207
35645
22373
105280
85676
11132
100743
69290
83792
18268
77116
64482
21839
42368
2865
21944
11837
52998
3300
74718
32799
24913
102144
4979
33138
31009
4673
105597
101043
79348
87936
14898
52696
6851
33727
58061
91864
76612
13573
81238
101509
40165
101224
7885
58061
31354
17372
4039
42368
9083
45566
33308
89697
71555
74482
3630
6084
88265
71555
28990
92267
49659
19602
36568
16098
80579
73032
12197
10942
7648
12149
65952
9014
4979
11628
105915
34284
19542
58976
6674
16632
4673
45888
2865
9069
57037
105393
6207
76206
66662
51061
31890
595
76206
77460
104421
2941
2212
43144
105280
76741
15172
88021
43058
70080
58061
26596
48329
48206
100560
5936
101224
90466
79389
41864
101063
25008
22950
2865
95063
19000
101063
25690
67232
22373
18268
67232
7648
103441
4115
4115
94009
105280
12149
3365
79245
33482
24554
4673
</DataArray>
<DataArray NumberOfComponents='3' type='Float32' Name='vels' format='ascii'>
7.945329 0.058498 0.000563
21.568611 -1.941065 -0.003803
2.119075 0.003598 0.015964
17.044058 0.459849 0.000845
22.624953 2.351211 0.006671
0.570234 0.009962 0.001622
18.165973 -0.757748 -0.002834
15.232910 0.219866 0.006900
8.307699 0.057870 0.000598
7.644008 0.078802 -0.001030
1.044318 -0.005985 0.000726
2.080684 0.030226 0.028445
9.769413 0.027585 0.000257
4.587159 -0.017670 0.002345
11.199804 0.168659 0.000101
17.472318 0.369163 0.000558
9.704218 -0.129825 -0.000630
11.462127 0.078774 0.033188
0.057249 -0.029722 -0.001721
18.263418 -0.408949 -0.005767
22.868072 -2.208523 0.003859
0.005492 0.048163 -0.002872
18.572209 0.951093 0.001175
1.931699 -0.007236 0.011607
16.648089 0.387515 -0.011975
22.634629 2.344265 0.000004
18.799632 -0.514053 -0.002503
22.316607 -1.711478 -0.001403
-0.008242 0.044835 -0.008175
5.994240 0.092694 0.030792
21.230425 2.584896 -0.003228
2.580656 0.012597 0.005671
7.678807 0.039192 0.033626
18.438616 0.378250 -0.002071
6.856944 0.000861 0.026291
9.380397 0.111836 0.000481
19.818414 -1.026376 -0.001432
20.284422 -0.781080 -0.002802
16.549890 0.075752 -0.002840
6.132965 -0.053677 -0.008046
6.668889 -0.010072 -0.017797
4.000723 -0.008765 0.007927
15.784881 0.214708 -0.195265
3.425048 -0.004336 -0.012321
21.949681 2.396587 0.010670
0.080673 0.008505 -0.004493
-0.041960 0.018799 -0.000938
20.927918 1.738289 -0.002030
12.072840 0.067079 0.032581
15.764994 0.216144 0.001137
17.962491 0.550734 0.011879
0.014455 -0.032983 0.009103
21.420895 -2.620063 -0.000279
0.085978 0.035705 -0.012473
17.310250 -0.030381 0.016251
13.223508 -0.071006 0.006513
5.993591 0.050998 0.002837
12.487191 -0.064146 -0.000997
16.187218 0.259987 0.002274
9.360266 -0.063246 0.021350
8.825574 -0.039220 -0.020922
18.129297 0.635817 0.001284
1.155263 -0.008142 0.017263
6.935781 0.199493 -0.001016
13.336639 0.171419 -0.001308
1.416804 -0.013438 -0.004539
16.311929 -0.021239 -0.043872
16.907794 0.315276 -0.015352
12.644924 -0.091728 0.008030
17.538392 -0.286106 -0.001973
20.778396 -0.966133 -0.002013
9.501213 -0.013455 -0.002106
12.357638 0.047148 0.042228
19.316186 0.750653 0.008522
0.007419 0.006868 0.000420
9.680943 0.001217 -0.025679
16.096639 0.402881 0.000668
18.832538 0.880919 0.002418
20.890209 1.747747 -0.002773
21.017837 1.209675 0.003969
-0.007143 -0.007831 -0.005685
21.121487 1.686305 -0.002173
13.866267 0.152144 0.012983
20.192254 -0.835859 -0.007729
22.408053 3.167954 0.003842
3.530554 -0.012212 0.002023
3.776902 0.044572 0.013678
21.081044 -1.829425 -0.005951
15.756097 -0.212539 0.010495
19.776974 -1.314392 -0.002584
17.514213 0.059178 -0.018068
17.631950 0.470874 0.019360
21.568462 2.401739 0.005890
12.072464 -0.146357 -0.003228
21.760049 -1.657307 0.000030
0.740853 -0.018232 0.001247
0.194726 0.056249 -0.016136
14.880713 0.404916 -0.000698
13.231073 0.153389 -0.005643
0.141840 -0.008476 -0.000850
9.242901 -0.165328 -0.001675
0.173247 0.002638 -0.056273
21.753204 2.135201 -0.003934
21.181556 -1.032992 0.003400
22.895379 1.966430 -0.000245
16.031667 0.757979 0.001803
20.353375 -1.178444 -0.000942
23.068880 -2.057044 -0.003304
23.018571 2.104194 0.000293
11.013580 -0.025748 -0.008908
18.295904 -0.464119 0.004836
18.150499 -0.267980 0.000910
2.221739 -0.029682 0.008879
20.505814 -1.000327 -0.004784
11.089889 0.168031 -0.000027
13.031741 0.203029 -0.000330
21.564194 0.566890 -0.001842
16.861842 0.418453 0.018041
0.085580 0.004737 -0.034173
19.306887 -0.011538 -0.000876
0.985629 0.091214 -0.022548
4.487824 -0.014223 0.005575
9.817851 0.065342 0.026226
14.906759 -0.191629 -0.033626
17.467266 0.268534 0.000387
4.189643 0.039199 -0.000441
22.759268 -1.902642 0.001048
9.817015 0.295629 -0.000896
22.118059 1.982747 0.008478
9.814427 -0.081315 0.005008
5.946117 -0.054120 0.007042
-0.095306 0.019440 -0.004555
17.974020 0.561027 -0.000934
13.454244 -0.112937 0.007420
19.734438 -1.421859 -0.003030
15.516392 -0.418843 -0.002424
15.357782 -0.162324 0.001922
21.746141 2.022282 0.004112
3.834693 0.014015 -0.018341
5.009829 0.001945 0.006544
21.043626 1.019645 0.003528
14.897193 0.378710 -0.000276
12.473850 -0.212711 -0.000060
22.178211 -2.271552 0.003522
21.277701 1.960727 -0.002193
4.705286 0.067368 0.032061
4.409060 -0.003251 -0.011865
19.656581 0.975917 -0.001467
13.239262 -0.205581 0.001428
16.616089 -0.245494 -0.000932
16.363232 -0.299425 0.004627
5.874431 0.074135 0.010393
22.681396 -2.851110 0.004248
22.912218 2.224757 0.005646
8.994865 0.062585 -0.014916
10.427775 0.051741 0.020749
3.577451 -0.006419 0.032133
11.413490 -0.046576 -0.001120
0.241743 -0.003643 0.018342
8.428038 0.060019 0.000583
16.290752 0.494792 0.001320
9.320214 0.031515 0.019097
20.135148 0.837641 -0.000786
22.980695 2.255321 0.003661
7.563094 -0.084218 0.029353
11.101383 0.472586 0.000717
18.830644 0.338160 -0.000434
20.483492 0.719534 -0.003020
9.378926 -0.021480 -0.032360
8.361041 -0.061995 0.066445
-0.028999 -0.004666 0.006808
15.354152 -0.303214 0.008858
22.588478 2.551200 -0.000149
10.651369 0.164250 0.000267
20.512669 -0.747679 -0.000817
18.584241 0.503940 -0.001674
0.304873 -0.001199 0.000936
20.425294 1.304179 0.002204
12.647103 0.419804 -0.000474
22.497554 2.441491 -0.002028
21.774307 1.503842 -0.002250
11.217990 0.108904 0.006489
12.562696 -0.169427 -0.000067
10.366154 0.031098 -0.038328
-0.121745 -0.000919 0.008453
18.888598 0.346700 -0.003625
14.032235 0.151281 0.016102
-0.081200 0.000077 0.000165
21.399880 -1.724528 -0.002375
17.225186 0.114124 0.019538
23.012067 1.975323 0.007535
16.925392 -0.531180 -0.003127
23.071822 -2.289375 0.004335
19.315218 0.705819 0.002249
0.729757 -0.072239 0.010153
19.184391 -0.876819 -0.001471
22.956155 -2.774560 0.006396
12.483131 -0.137057 0.017684
20.638686 -1.436119 -0.007977
9.962947 -0.096374 0.002133
21.792412 2.099798 -0.000723
18.927435 0.974076 0.001627
5.427218 0.061347 -0.009105
15.694634 -0.390175 -0.001302
6.126154 -0.022033 0.015128
23.025989 -2.942054 -0.003686
-0.108925 0.026340 0.000628
18.363581 0.734359 -0.000549
18.998105 -0.303137 0.008208
8.121141 -0.001743 0.032840
21.704345 2.330849 0.008445
21.738344 2.284749 0.011201
20.859912 1.083365 0.006509
16.537431 0.264601 0.002800
9.859239 -0.075492 -0.007606
19.911714 -1.755161 -0.002071
20.303349 -1.095098 0.002773
17.381822 0.386183 0.000080
19.308983 -1.347715 0.002490
1.580721 0.026340 -0.033354
20.636322 1.681918 -0.002983
16.804761 -0.174270 0.001893
7.696993 -0.089515 -0.001601
20.597600 0.918190 0.007020
18.132512 1.915334 0.014348
12.254049 -0.116833 -0.007533
18.326808 0.736800 -0.001290
7.315010 -0.008649 -0.043718
6.049998 -0.019581 -0.002780
14.142207 -0.159126 0.002160
15.032498 -0.267651 -0.001820
-0.012489 -0.029149 0.006882
4.642116 0.005647 -0.003453
22.592918 -1.926424 -0.001778
11.478237 -0.055634 0.046270
4.028937 -0.060400 0.038050
21.331089 -1.381653 0.004311
10.306873 0.082742 -0.000055
20.921478 1.377502 0.000707
3.829188 0.070596 0.025144
5.700564 -0.059227 -0.011613
16.163455 0.160544 0.001032
17.770709 -0.394744 -0.002779
18.799568 -0.312277 -0.000277
23.021002 2.650793 0.005148
13.269833 0.055404 -0.001571
17.886451 0.175358 -0.002401
1.965652 0.002400 0.023556
9.410746 -0.085340 0.006523
0.100974 0.002729 -0.010149
14.774680 0.135469 0.001804
21.649377 2.693602 -0.006046
11.649298 0.099185 0.020388
12.254033 0.035013 0.025001
16.285322 0.330137 -0.001683
7.043254 -0.026214 0.001318
20.753244 0.375553 -0.000422
0.625508 -0.014846 0.154240
0.023779 0.006095 -0.002344
0.105471 0.023439 -0.025071
20.314240 1.126718 -0.003669
0.004472 -0.038470 0.015757
20.147867 -0.791017 -0.002463
21.449083 2.018776 0.000078
20.629187 1.011675 -0.004939
19.248539 -0.590920 0.004242
1.939508 -0.014278 0.021268
20.931649 -0.253797 0.000437
21.240258 -1.043768 -0.006568
6.267454 0.049879 0.003048
17.941220 0.437723 0.019941
-0.111101 -0.002864 -0.002630
20.871341 -2.093904 0.007863
19.625653 -0.437248 -0.003529
21.536511 -2.208163 0.001908
21.207200 -0.765522 -0.005121
19.571144 -0.369260 -0.002420
22.712317 -2.292188 -0.002557
14.634227 0.142936 0.011606
19.666981 1.287665 -0.003202
16.231579 0.379176 -0.002463
19.510527 0.720089 0.001525
9.308754 -0.064607 -0.000375
15.237642 0.070625 0.005705
15.114032 -0.181967 0.000599
9.221548 -0.104593 -0.008062
15.055996 -0.232169 -0.004754
1.630531 0.000255 0.009592
17.748565 0.794181 0.007853
0.021200 0.015004 0.008855
10.277396 0.077928 -0.000995
19.880320 -1.201724 -0.001116
22.420802 2.528362 -0.001659
14.403309 -0.011056 0.009759
1.481326 -0.008731 0.000413
15.733847 0.135319 -0.002782
17.502554 -0.293554 -0.008064
11.150219 -0.123824 -0.010090
20.014219 0.328189 0.002511
7.842649 -0.010176 0.001968
19.681185 0.109452 0.001753
20.691911 -0.892558 -0.014941
2.733951 0.037778 -0.000464
21.471633 2.319912 -0.002874
11.234054 0.134578 0.000395
12.757628 -0.208965 0.000652
21.161634 -1.356747 0.002615
11.096126 0.028192 -0.009708
7.871989 0.580324 0.197767
11.586643 0.032748 0.006510
10.091805 -0.325251 -0.002517
6.035998 -0.003401 -0.002119