<VTKFile type='UnstructuredGrid' version='1.0' byte_order='LittleEndian' header_type='UInt64'>
<UnstructuredGrid>
<Piece NumberOfCells='500' NumberOfPoints='500'>
<Points>
<DataArray NumberOfComponents='3' type='Float32' Name='Position' format='ascii'>
1.357970 0.810691 0.228242
2.041913 0.322548 0.117272
0.313119 0.977538 0.221214
2.032789 0.817449 0.183718
2.006422 0.772777 0.106364
0.151699 0.192686 0.246450
2.021840 0.236634 0.075397
2.017995 0.818960 0.207017
1.348480 0.812408 0.225050
1.333793 0.874604 0.227498
1.570733 0.153859 0.035836
0.267242 0.006699 0.058064
1.175635 0.773812 0.222100
0.667240 0.236176 0.237772
1.691019 0.775370 0.215177
2.029884 0.896507 0.149988
1.984278 0.267152 0.202253
1.988682 0.924658 0.160020
1.123183 0.889164 0.219187
2.028493 0.103892 0.112536
2.053310 0.240382 0.149626
0.191106 0.107762 0.229346
2.013011 0.752185 0.079681
0.314213 0.991788 0.150409
2.010016 0.889759 0.129730
2.047684 0.745451 0.119795
1.249304 0.489966 0.096350
2.034071 0.303870 0.160488
0.041083 0.851483 0.002873
0.916525 0.952501 0.221664
2.049422 0.718082 0.151819
0.554255 0.304922 0.242641
0.981623 0.976014 0.187291
2.022542 0.715620 0.181877
1.513494 0.975718 0.129801
1.913878 0.642377 0.201498
2.032977 0.238094 0.074622
2.000648 0.118576 0.122908
1.774000 0.643450 0.044700
1.921826 0.089510 0.068946
1.236081 0.051028 0.216544
0.601485 0.280050 0.239054
0.386801 0.291753 0.006709
0.621576 0.036829 0.032126
2.007880 0.710244 0.115067
0.224858 0.525787 0.007990
0.028250 0.128521 0.020625
2.001995 0.747523 0.166309
1.902921 0.934298 0.107224
2.032963 0.684623 0.203324
2.034140 0.855777 0.176953
0.021891 0.667896 0.223541
2.008327 0.295468 0.130869
0.042062 0.851194 0.002365
0.913208 0.438709 0.226677
1.757396 0.308860 0.208520
0.842096 0.887808 0.230657
1.553136 0.280235 0.037127
2.020040 0.916381 0.117455
1.256544 0.026420 0.167921
1.466553 0.138256 0.026801
2.033928 0.852710 0.179680
0.233541 0.992768 0.194024
2.009942 0.676050 0.191148
2.019976 0.708230 0.042371
0.192039 0.723934 0.001850
1.364636 0.189073 0.028677
2.031539 0.915199 0.125560
1.638963 0.079371 0.204559
2.018562 0.097872 0.154440
2.032726 0.151930 0.157049
0.973875 0.329636 0.024664
1.374610 0.981239 0.114641
2.012379 0.857800 0.088540
0.041150 0.652826 0.242729
1.224558 0.790026 0.028092
2.006516 0.709664 0.056035
2.006612 0.733044 0.069206
2.032027 0.708061 0.156368
2.047422 0.659033 0.158041
0.407281 0.205896 0.213721
2.008623 0.671327 0.150335
1.810405 0.932037 0.068220
2.000212 0.119345 0.120454
2.027649 0.788814 0.122788
0.606888 0.244597 0.239585
0.871593 0.975957 0.186712
2.037782 0.301018 0.135393
2.000514 0.077327 0.105807
2.037639 0.231862 0.074891
0.957467 0.723741 0.020655
2.043692 0.901627 0.126913
2.041219 0.688146 0.137356
1.850552 0.209348 0.040086
2.033186 0.327317 0.104475
0.191906 0.612411 0.249694
0.033035 0.560967 0.249303
2.044269 0.818918 0.199550
2.001223 0.848056 0.050231
1.798875 0.124181 0.201233
2.012521 0.233298 0.045845
0.206781 0.980357 0.172347
2.030091 0.839346 0.098504
2.033268 0.354557 0.077770
2.041484 0.819601 0.133527
2.016896 0.735843 0.177114
2.005133 0.350592 0.093012
2.030378 0.211665 0.125291
2.051344 0.818365 0.128576
1.690617 0.036818 0.114699
2.015030 0.096685 0.090606
2.042048 0.398850 0.188016
0.346394 0.909032 0.241243
2.022922 0.372593 0.103430
1.724687 0.764518 0.215011
2.016049 0.756633 0.040487
2.020701 0.649097 0.095229
2.010562 0.904400 0.171377
0.043962 0.992960 0.222213
1.242652 0.500425 0.073560
0.086592 0.042956 0.006224
1.718280 0.241244 0.212675
1.997019 0.925886 0.157767
1.936908 0.060682 0.123485
2.029796 0.721484 0.189331
1.174294 0.938914 0.027504
2.022575 0.188149 0.135854
2.017201 0.681083 0.191017
2.023163 0.803616 0.100864
1.735845 0.096582 0.039180
1.363974 0.089917 0.224121
0.010681 0.504216 0.222894
2.015481 0.887887 0.167531
1.975945 0.065130 0.147179
2.024290 0.352007 0.073397
2.044852 0.258797 0.047845
1.979219 0.366760 0.199497
2.018896 0.681016 0.127061
0.604423 0.984441 0.101275
0.824926 0.486224 0.234155
2.018782 0.639498 0.119193
2.033252 0.732225 0.044826
1.955504 0.304261 0.040800
2.020581 0.271387 0.143559
2.029636 0.772421 0.161292
0.805035 0.976543 0.191163
0.666030 0.015854 0.100988
2.030579 0.775512 0.178289
2.041007 0.276005 0.046258
1.952807 0.288892 0.039773
2.030297 0.105648 0.171593
1.792730 0.886721 0.207570
2.007401 0.237211 0.132114
2.043957 0.792899 0.145899
1.329506 0.978613 0.087218
1.178882 0.976850 0.175255
0.846089 0.031404 0.161924
1.551698 0.249923 0.033407
0.036636 0.567514 0.249263
1.088199 0.776908 0.227085
2.031014 0.717976 0.184907
1.373280 0.971715 0.178095
2.015580 0.844944 0.092940
2.035106 0.799893 0.114166
1.410053 0.079591 0.224978
2.022126 0.726487 0.178634
2.027879 0.840318 0.184213
2.017479 0.630500 0.093234
1.368029 0.026940 0.169002
0.574751 0.030032 0.168379
0.039344 0.988075 0.129046
2.017105 0.149523 0.065801
2.002765 0.755692 0.135449
1.618634 0.790864 0.216922
2.024452 0.367358 0.155246
2.029788 0.686933 0.179488
0.051733 0.985801 0.006846
2.043170 0.614473 0.123196
2.022747 0.721939 0.186483
2.054804 0.758295 0.109029
2.041637 0.681193 0.088195
1.590489 0.907887 0.041392
1.858800 0.292713 0.208329
1.651883 0.955255 0.175001
0.182618 0.023509 0.081045
2.026112 0.916278 0.087320
1.927584 0.915942 0.072483
0.039098 0.989542 0.137199
2.043955 0.337547 0.127159
0.763913 0.810717 0.237168
2.014167 0.830135 0.092786
2.021179 0.297030 0.060840
2.006074 0.222603 0.150129
2.012553 0.718654 0.076826
0.148365 0.880235 0.246350
2.014067 0.221852 0.075742
2.022074 0.220839 0.125137
1.116237 0.026453 0.158279
2.024098 0.190148 0.166427
1.650764 0.095004 0.036043
2.031926 0.750208 0.100893
2.032816 0.780082 0.070591
0.684401 0.908144 0.019319
2.036882 0.229357 0.050515
0.787481 0.026441 0.192108
2.032852 0.230892 0.118425
0.013656 0.160595 0.234377
2.019598 0.843053 0.176573
2.016902 0.101517 0.145640
0.577611 0.474085 0.241495
2.045287 0.712677 0.129932
2.035427 0.694947 0.126864
2.048916 0.864810 0.125488
2.001647 0.913888 0.124021
1.581709 0.067557 0.041927
2.035264 0.224157 0.103852
2.025508 0.345656 0.154944
2.035546 0.726023 0.059531
2.008734 0.276993 0.174787
0.148880 0.027287 0.023659
2.014314 0.785718 0.158959
1.876891 0.407407 0.060057
1.371033 0.077686 0.024062
2.027677 0.625261 0.106097
2.002812 0.754347 0.144586
1.517736 0.028926 0.127797
2.012800 0.666294 0.074063
0.772331 0.546280 0.014505
0.910934 0.016958 0.098012
1.878805 0.354825 0.203976
2.009621 0.190728 0.054982
0.040768 0.706092 0.241379
0.757902 0.624075 0.014392
2.037639 0.183166 0.137945
1.636861 0.043115 0.169296
0.447072 0.970276 0.214704
2.030415 0.333994 0.097299
1.674108 0.693578 0.033865
2.021489 0.647323 0.134533
1.010553 0.953304 0.208037
0.909719 0.082096 0.020668
1.872586 0.677337 0.208694
2.017824 0.348008 0.065318
2.038313 0.328636 0.190803
2.017192 0.772864 0.111412
1.177126 0.501613 0.052457
1.944410 0.671481 0.043787
0.546963 0.981385 0.159676
1.350745 0.066269 0.213497
1.013155 0.127217 0.025046
2.022459 0.678012 0.204441
2.005690 0.712882 0.141472
0.954535 0.989572 0.142960
1.636721 0.964076 0.115660
2.019636 0.910267 0.135929
1.034024 0.228695 0.228125
2.006319 0.572720 0.097924
0.033648 0.996065 0.046803
0.307307 0.794783 0.005388
0.123144 0.623846 0.211191
2.007652 0.682386 0.138880
0.287024 0.619238 0.239280
2.005989 0.126293 0.114610
2.008474 0.747795 0.153841
2.001298 0.857592 0.150809
2.025124 0.119820 0.148109
0.623543 0.385566 0.013349
2.039586 0.412706 0.106171
2.024485 0.316321 0.073033
0.861049 0.830337 0.233411
2.013345 0.882962 0.090390
0.036759 0.188944 0.013509
2.015784 0.275097 0.093220
2.010821 0.308547 0.173000
2.033909 0.289244 0.112282
2.042875 0.331086 0.077792
2.039336 0.339690 0.068817
2.034917 0.195737 0.108191
2.013953 0.922460 0.103780
2.027577 0.749487 0.077519
2.000638 0.887062 0.082849
2.043238 0.860607 0.086299
1.708213 0.095307 0.038383
1.971189 0.930980 0.107288
1.988431 0.347873 0.198041
1.584705 0.125962 0.028567
2.036560 0.107947 0.066608
0.094166 0.964246 0.239279
2.018576 0.840891 0.076544
1.178246 0.868362 0.031079
1.725284 0.893696 0.211226
2.003428 0.277166 0.164066
2.040073 0.728954 0.132857
0.968612 0.401262 0.212998
0.985774 0.047515 0.033917
1.891830 0.705237 0.037340
2.038919 0.091718 0.151174
1.786397 0.164214 0.038050
2.010286 0.565693 0.109033
0.904684 0.458355 0.227307
1.142155 0.734605 0.181967
2.010992 0.147421 0.096275
2.023444 0.832276 0.209149
2.038118 0.748146 0.141266
1.782691 0.681429 0.215434
2.007343 0.252245 0.045028
2.038461 0.336184 0.102265
1.726452 0.956991 0.124363
1.077391 0.081643 0.027782
1.672686 0.943195 0.070776
2.036578 0.240857 0.056613
0.868015 0.472490 0.017476
1.738232 0.937926 0.080713
2.026656 0.128085 0.135971
2.011742 0.078111 0.152927
0.014425 0.509392 0.234328
1.999268 0.296072 0.042657
1.027387 0.180426 0.233138
2.020640 0.930446 0.117839
2.012230 0.680055 0.167305
2.024435 0.735181 0.039485
2.025570 0.769084 0.186028
1.741558 0.670856 0.035261
0.523134 0.982765 0.197124
0.039171 0.426297 0.016417
2.002534 0.716035 0.146029
0.029924 0.373013 0.240156
1.124394 0.038733 0.037214
2.028122 0.221336 0.119898
2.000288 0.313538 0.179206
0.013428 0.513994 0.241438
0.808037 0.402732 0.229841
0.761682 0.030030 0.042692
2.023364 0.091646 0.073414
0.007811 0.605221 -0.000325
2.022095 0.088833 0.073625
1.659306 0.666924 0.042264
1.702609 0.706952 0.031646
0.010130 0.279171 0.235827
2.048770 0.749451 0.090866
2.029164 0.787634 0.187305
1.379875 0.772055 0.037458
2.001214 0.102727 0.166548
0.952377 0.976930 0.065864
0.343630 0.133605 0.025566
2.016937 0.339622 0.074967
0.018953 0.890552 0.250145
2.000588 0.799573 0.125313
2.018788 0.585346 0.066433
1.747132 0.623975 0.202668
2.028930 0.271324 0.174884
1.768621 0.096229 0.043870
0.179212 0.982012 0.217085
2.026492 0.348990 0.140628
1.083276 0.942407 0.226536
2.033815 0.595950 0.076129
0.217460 0.010004 0.208915
2.031101 0.930411 0.137363
1.899351 0.865802 0.205709
1.692489 0.915571 0.043442
2.025588 0.792722 0.125310
2.036936 0.079405 0.138733
0.908636 0.966948 0.203835
2.006244 0.790524 0.087015
0.596372 0.025588 0.040842
0.572120 0.019707 0.163450
1.039395 0.307187 0.066073
0.018424 0.746798 0.010322
2.007610 0.172173 0.078813
1.785419 0.218987 0.214743
1.191926 0.492804 0.054631
0.324597 0.531944 0.229824
2.020352 0.301361 0.168629
1.556423 0.913390 0.035957
2.054257 0.245705 0.112442
1.061794 0.470169 0.106272
2.005327 0.901170 0.181384
1.581182 0.095268 0.216089
2.014286 0.350295 0.187820
1.931951 0.938620 0.139458
2.040402 0.096788 0.101012
2.001294 0.107314 0.184666
0.661485 0.032787 0.212937
2.038295 0.102904 0.177095
2.025195 0.408903 0.144709
1.155258 0.976856 0.086487
2.020001 0.799353 0.160508
2.012249 0.715509 0.135389
0.778214 0.985446 0.093171
0.034259 -0.000089 0.183998
1.969756 0.896865 0.057629
0.571938 0.482887 0.007942
2.047931 0.313367 0.104281
2.023425 0.371297 0.189176
2.033696 0.125638 0.135117
1.510556 0.797793 0.028114
1.668156 0.089947 0.211422
0.105251 0.985215 0.021002
2.001362 0.282336 0.081177
1.095032 0.225428 0.221645
2.016776 0.724579 0.168284
0.015010 0.012764 0.083503
2.007751 0.161367 0.097244
0.258811 0.957929 0.016311
2.021828 0.925834 0.076102
1.515167 0.062257 0.208569
1.916810 0.663439 0.206451
2.023007 0.116935 0.149028
2.001221 0.669073 0.192203
2.049318 0.245117 0.121517
1.554523 0.278382 0.211260
2.014259 0.206345 0.053412
1.639320 0.048410 0.175032
0.355918 0.989568 0.169484
2.017891 0.273142 0.089601
1.130339 0.045750 0.032511
2.001818 0.350240 0.144337
2.018226 0.826991 0.177203
1.209517 0.506562 0.190675
2.040798 0.271093 0.087862
2.039047 0.789668 0.048091
0.741447 0.086198 0.019196
1.124867 0.942731 0.220864
2.010548 0.695931 0.089083
1.918730 0.350161 0.198470
1.900293 0.585151 0.057904
2.024173 0.282589 0.075697
1.552416 0.797007 0.225212
2.025903 0.091580 0.162508
2.039833 0.740614 0.110457
2.045441 0.386358 0.068500
0.824702 0.030145 0.195005
2.035768 0.751377 0.149175
2.021132 0.167951 0.105210
2.030107 0.426089 0.134212
0.837924 0.565162 0.016181
1.948482 0.343613 0.198863
2.033975 0.332578 0.095046
2.024310 0.858399 0.143123
1.065211 0.209874 0.024669
2.036353 0.070023 0.119429
2.006043 0.826376 0.044697
2.033033 0.715423 0.127692
2.040083 0.091923 0.085418
1.917527 0.434473 0.109671
2.038732 0.267869 0.046259
2.022422 0.186151 0.198259
1.964748 0.108711 0.199445
2.015052 0.920555 0.112129
0.298651 0.617159 0.003408
0.105467 0.686120 0.247649
2.017961 0.096528 0.184175
1.675714 0.213161 0.030679
2.024277 0.380779 0.080066
0.374699 0.639799 0.011844
1.899501 0.718911 0.043026
1.613516 0.220847 0.220768
2.019767 0.325567 0.131726
2.010451 0.114133 0.153634
1.746621 0.344315 0.211575
0.550687 0.025127 0.040065
1.932079 0.864070 0.043539
2.008738 0.657800 0.178482
0.040690 0.572542 0.014291
0.965802 0.609004 0.219502
1.361372 0.023556 0.163075
1.259387 0.047432 0.213633
2.024197 0.296343 0.159639
1.241065 0.833831 0.021203
2.003979 0.189402 0.181230
0.047646 0.852974 -0.000133
1.477704 0.908677 0.222438
0.250903 0.953448 0.011334
0.141221 0.003761 0.207784
2.007821 0.839730 0.099613
1.904745 0.105674 0.197961
0.027696 0.375135 0.238749
1.573812 0.918432 0.035878
2.033046 0.667468 0.200239
1.248434 0.520030 0.126966
0.050143 0.940450 0.001903
2.017117 0.290534 0.208101
0.019522 0.386796 0.245020
2.042207 0.866436 0.076275
1.086835 0.969670 0.050292
2.005977 0.763890 0.090744
1.189539 0.496923 0.053022
1.056338 0.971765 0.051592
1.913526 0.406532 0.057812
1.897869 0.608717 0.204264
1.842363 0.934383 0.090775
1.767030 0.951220 0.109921
0.667222 0.977043 0.072732
0.611657 0.018635 0.056781
0.974433 0.023859 0.176354
2.019279 0.075744 0.157400
2.007864 0.166258 0.184835
1.951181 0.122360 0.199359
2.033492 0.829768 0.188287
2.009141 0.738372 0.125480
</DataArray>
</Points>
<PointData>
<DataArray NumberOfComponents='1' type='Int32' Name='ParticleType' format='ascii'>
1
1
1
1
1
1
1
1
1
1
1
1
1
1
1
1
1
1
1
1
1
1
1
1
1
1
1
1
1
1
1
1
1
1
1
1
1
1
1
1
1
1
1
1
1
1
1
1
1
1
1
1
1
1
1
1
1
1
1
1
1
1
1
1
1
1
1
1
1
1
1
1
1
1
1
1
1
1
1
1
1
1
1
1
1
1
1
1
1
1
1
1
1
1
1
1
1
1
1
1
1
1
1
1
1
1
1
1
1
1
1
1
1
1
1
1
1
1
1
1
1
1
1
1
1
1
1
1
1
1
1
1
1
1
1
1
1
1
1
1
1
1
1
1
1
1
1
1
1
1
1
1
1
1
1
1
1
1
1
1
1
1
1
1
1
1
1
1
1
1
1
1
1
1
1
1
1
1
1
1
1
1
1
1
1
1
1
1
1
1
1
1
1
1
1
1
1
1
1
1
1
1
1
1
1
1
1
1
1
1
1
1
1
1
1
1
1
1
1
1
1
1
1
1
1
1
1
1
1
1
1
1
1
1
1
1
1
1
1
1
1
1
1
1
1
1
1
1
1
1
1
1
1
1
1
1
1
1
1
1
1
1
1
1
1
1
1
1
1
1
1
1
1
1
1
1
1
1
1
1
1
1
1
1
1
1
1
1
1
1
1
1
1
1
1
1
1
1
1
1
1
1
1
1
1
1
1
1
1
1
1
1
1
1
1
1
1
1
1
1
1
1
1
1
1
1
1
1
1
1
1
1
1
1
1
1
1
1
1
1
1
1
1
1
1
1
1
1
1
1
1
1
1
1
1
1
1
1
1
1
1
1
1
1
1
1
1
1
1
1
1
1
1
1
1
1
1
1
1
1
1
1
1
1
1
1
1
1
1
1
1
1
1
1
1
1
1
1
1
1
1
1
1
1
1
1
1
1
1
1
1
1
1
1
1
1
1
1
1
1
1
1
1
1
1
1
1
1
1
1
1
1
1
1
1
1
1
1
1
1
1
1
1
1
1
1
1
1
1
1
1
1
1
1
1
1
1
1
1
1
1
1
1
1
1
1
1
1
1
1
1
1
1
1
1
1
1
1
1
1
1
1
1
1
1
1
1
1
1
1
1
1
1
1
1
1
1
1
1
1
</DataArray>
<DataArray NumberOfComponents='1' type='Int32' Name='ParticleID' format='ascii'>
0
1
2
3
4
5
6
7
8
9
10
11
12
13
14
15
16
17
18
19
20
21
22
23
24
25
26
27
28
29
30
31
32
33
34
35
36
37
38
39
40
41
42
43
44
45
46
47
48
49
50
51
52
53
54
55
56
57
58
59
60
61
62
63
64
65
66
67
68
69
70
71
72
73
74
75
76
77
78
79
80
81
82
83
84
85
86
87
88
89
90
91
92
93
94
95
96
97
98
99
100
101
102
103
104
105
106
107
108
109
110
111
112
113
114
115
116
117
118
119
120
121
122
123
124
125
126
127
128
129
130
131
132
133
134
135
136
137
138
139
140
141
142
143
144
145
146
147
148
149
150
151
152
153
154
155
156
157
158
159
160
161
162
163
164
165
166
167
168
169
170
171
172
173
174
175
176
177
178
179
180
181
182
183
184
185
186
187
188
189
190
191
192
193
194
195
196
197
198
199
200
201
202
203
204
205
206
207
208
209
210
211
212
213
214
215
216
217
218
219
220
221
222
223
224
225
226
227
228
229
230
231
232
233
234
235
236
237
238
239
240
241
242
243
244
245
246
247
248
249
250
251
252
253
254
255
256
257
258
259
260
261
262
263
264
265
266
267
268
269
270
271
272
273
274
275
276
277
278
279
280
281
282
283
284
285
286
287
288
289
290
291
292
293
294
295
296
297
298
299
300
301
302
303
304
305
306
307
308
309
310
311
312
313
314
315
316
317
318
319
320
321
322
323
324
325
326
327
328
329
330
331
332
333
334
335
336
337
338
339
340
341
342
343
344
345
346
347
348
349
350
351
352
353
354
355
356
357
358
359
360
361
362
363
364
365
366
367
368
369
370
371
372
373
374
375
376
377
378
379
380
381
382
383
384
385
386
387
388
389
390
391
392
393
394
395
396
397
398
399
400
401
402
403
404
405
406
407
408
409
410
411
412
413
414
415
416
417
418
419
420
421
422
423
424
425
426
427
428
429
430
431
432
433
434
435
436
437
438
439
440
441
442
443
444
445
446
447
448
449
450
451
452
453
454
455
456
457
458
459
460
461
462
463
464
465
466
467
468
469
470
471
472
473
474
475
476
477
478
479
480
481
482
483
484
485
486
487
488
489
490
491
492
493
494
495
496
497
498
499
</DataArray>
<DataArray NumberOfComponents='1' type='Int8' Name='IsActive' format='ascii'>
1
0
1
0
0
1
0
1
1
1
1
1
1
1
1
0
1
1
1
0
0
1
0
1
0
0
1
0
1
1
0
1
1
0
1
1
0
0
1
1
1
1
1
1
0
1
1
0
1
0
0
1
0
1
1
1
1
1
0
1
1
0
1
0
1
1
1
0
1
0
0
1
1
0
1
1
0
0
0
0
1
0
1
0
0
1
1
0
0
0
1
0
0
1
0
1
1
0
0
1
0
1
0
0
0
0
0
0
0
1
0
0
1
0
1
1
0
0
1
1
1
1
1
1
0
1
0
0
0
1
1
1
0
1
0
0
1
0
1
1
0
0
1
0
0
1
1
0
0
1
0
1
0
0
1
1
1
1
1
1
0
1
0
0
1
0
0
0
1
1
1
0
0
1
0
0
1
0
0
0
0
1
1
1
1
0
1
1
0
1
0
0
0
0
1
0
0
1
0
1
0
0
1
0
1
0
1
0
0
1
0
0
0
0
1
0
0
0
0
1
0
1
1
0
0
1
0
1
1
1
0
1
1
0
1
1
0
1
0
1
1
1
0
0
0
1
1
1
1
1
0
0
1
1
0
1
0
1
1
1
0
1
0
0
0
0
1
0
0
1
0
1
0
0
0
0
0
0
0
0
0
0
1
1
1
1
0
1
0
1
1
0
0
1
1
1
0
1
0
1
1
0
0
0
1
0
0
1
1
1
0
1
1
0
0
1
1
1
0
0
0
0
1
1
1
0
1
1
0
0
1
1
1
0
0
0
1
1
1
0
0
1
0
1
1
0
0
0
0
1
0
1
1
0
1
0
1
0
1
1
0
0
1
0
1
1
1
1
0
1
1
1
0
1
0
1
0
1
0
1
0
0
1
0
0
1
0
0
1
0
1
1
0
0
0
1
1
1
0
1
0
1
0
1
1
1
1
0
0
0
1
0
1
1
0
1
0
0
1
0
0
1
1
0
1
1
0
1
0
0
0
1
0
0
0
1
1
0
0
1
0
0
0
0
1
0
0
1
0
1
1
0
1
0
1
1
1
0
0
1
1
1
0
1
1
1
1
0
1
0
0
1
1
1
0
1
1
1
0
1
1
1
1
0
1
0
1
1
1
1
1
1
1
1
1
0
0
1
0
0
</DataArray>
<DataArray NumberOfComponents='1' type='Int32' Name='ParticleTetID' format='ascii'>
17971
-50400
106070
-69862
-102510
65261
-69112
-82730
13116
64544
64476
31219
104305
31048
56935
-93293
71687
74057
14186
-98831
-12127
45509
-98411
33471
-93293
-102840
24259
-91191
100560
59622
-34180
31180
46150
-39168
45120
58914
-69112
-42296
40622
4420
89887
96924
50654
64515
-90119
59157
94294
-93119
322
-82225
-90337
80251
-25302
100560
70498
17742
17573
8014
-27681
79760
47382
-90337
97319
-57434
-90680
18706
68749
-27681
49653
-104925
-80727
25575
101148
-96019
80251
35655
-75610
-98411
-34180
-57434
14667
-57434
18817
-42296
-102510
66888
60583
-50400
-98306
-69112
88985
-93293
-104802
50533
-83399
79062
99903
-90337
-79597
95075
-90622
26799
-96019
-58762
-86274
-93119
-58762
-98765
-86274
64963
-96731
-44272
103349
-24526
4670
-92602
-87306
-96325
98699
80089
100821
49633
74057
104764
-39168
86335
-98765
-39168
-17626
15918
43313
100092
-96325
104924
-58762
-64130
96943
-104802
7964
41075
-95998
-92602
85863
-12127
-70156
3994
103156
-70156
-92373
78079
-44138
60775
-83215
-102510
100276
71020
23270
28263
99903
3212
-39168
99278
-96019
-17626
83813
-39168
-90337
-74393
44038
105750
97137
-87514
-102840
32329
-93819
-39168
99126
-96354
-39168
-102840
-91248
84962
86924
51048
67329
-89958
10734
97137
-96849
50007
-96019
-92373
-85990
-91248
70045
-69112
-83215
89482
-85990
87843
-102840
-83820
47502
-64130
105712
-83215
100903
-90337
-98831
85065
-34180
-104802
-98210
-27681
44954
-69112
-98308
-91248
-61396
99302
-70156
10307
75495
-74393
-102840
44062
-82524
45933
74727
80052
-70433
69970
61346
-99021
86436
5163
-83399
32815
-104802
86414
69241
41087
-58762
-98308
-102510
72008
33187
31998
58513
30023
-82225
-34180
47218
19618
-27681
29068
-84540
99980
97973
14703
-104802
19904
-42296
-93119
-98210
-42296
95144
-90131
-83399
52114
-96019
85474
-94130
-91191
-25302
-83399
-58762
-99021
-79211
-98411
-48492
-96019
20429
27680
96943
95691
-100353
93306
-96019
52346
61408
-61396
-34180
35577
78148
8404
-98831
65025
-100422
83719
11642
-24687
-82730
-102840
80967
-90622
-83399
93318
34019
37670
-64130
97464
20789
-42296
-104925
100092
88015
6996
-27681
-57434
-92602
-94146
104976
17000
74099
-34180
101063
73708
-83215
-91191
100092
72263
35052
-96731
-101355
-96731
64982
4710
98826
-98411
-94146
51168
-44138
60257
81540
-58762
-71594
-17626
-25092
34093
-61396
18044
79807
-96849
25434
-25092
66943
-27681
88427
43763
-17626
-98831
80460
-83820
64515
105750
106173
100743
-56272
46812
50907
43058
-91191
55068
-83215
25364
-96325
47148
-98308
11612
-98306
-44138
36588
-44138
-19405
89473
-70156
-34180
12535
-101044
15587
25726
-94130
-98308
-42296
24702
42063
95712
-94130
47953
-93119
101509
-24687
68435
-89958
30873
59696
-42296
-42146
-83215
81462
-70433
52258
57237
-94130
73708
-99096
-69862
50631
-94130
-99911
97835
37181
-91248
68895
16317
-92373
52797
-104925
-102840
-24526
103848
-102840
-24687
-19405
24328
95732
-83399
-98210
62293
-98831
-79597
-34180
-96731
42098
-92373
-99721
17233
-27681
74608
14135
-44138
11593
-24526
77460
17923
30502
-50400
-42296
80255
8929
7638
-42146
88021
82423
22112
52964
-95447
13984
-99721
-100561
45170
82705
87735
-96019
7860
101063
91639
-42146
3336
99121
-91090
101063
-96019
88572
-98411
37130
99585
9719
18675
51674
49229
59492
64515
13008
-104925
-99721
12505
-90337
-102840
</DataArray>
<DataArray NumberOfComponents='3' type='Float32' Name='vels' format='ascii'>
11.181424 0.440686 0.005381
22.746117 0.571945 -0.290697
3.408915 0.001812 -0.003099
20.081773 -0.217840 -0.277921
23.484112 -0.510887 0.083072
1.092144 -0.005767 0.002112
20.333378 0.277334 -0.621174
12.783111 0.221707 0.073535
16.885564 0.865926 0.030916
15.637878 0.073374 -0.034506
21.096857 4.939190 0.012807
1.746371 0.000993 0.001077
18.377047 -0.357943 -0.063539
4.395260 -0.608877 0.002247
13.229575 -3.627149 -0.031428
20.644419 -0.244898 0.011251
13.669825 0.352824 -0.278393
12.393928 0.146553 0.077610
23.959351 2.141570 0.018961
19.044396 -1.244907 -0.238396
21.835456 0.067503 1.640637
7.773058 -0.059595 -0.018640
20.051412 -0.328575 -0.076616
2.040221 0.000322 0.012366
18.297037 -0.214221 0.115799
22.591256 -0.226395 0.244628
2.708680 -0.019673 0.009735
21.418610 0.522880 0.667956
0.172316 0.046363 -0.019686
8.333229 0.442638 0.018656
22.058982 -0.221339 0.905368
2.582228 -0.171693 0.000026
10.151188 0.307540 0.021033
19.420937 -0.419907 0.689956
4.879959 -0.057346 0.047762
13.651173 -0.954759 -0.082555
19.690416 0.183231 -1.354405
17.262796 -0.581290 -0.236368
10.985081 -2.843342 -0.002141
6.272467 0.147209 0.096666
19.146023 -0.048974 0.022704
3.815328 -0.362604 -0.000085
2.494581 -0.048055 0.000271
3.577601 -0.023262 -0.020929
23.253517 -0.506630 -0.243077
2.893816 0.000204 -0.001305
-0.097488 0.007539 -0.001292
21.234953 -0.478901 -0.021576
14.096465 -0.427085 0.069374
15.336051 -0.375124 2.450828
15.641460 0.592641 2.478244
-0.113757 -0.029000 0.004381
23.583462 0.705706 0.031841
0.150084 0.053488 -0.017139
2.707845 -1.765826 0.015959
12.452538 3.637686 -0.002173
7.758401 1.264429 -0.002932
13.972904 9.203158 0.072741
16.294222 1.334800 -0.294998
21.580721 0.033867 -0.006816
18.842580 2.303460 0.022576
15.971599 0.661878 2.362355
1.491541 -0.003921 0.013400
16.469972 -0.440812 0.460427
8.803361 -0.053175 -1.230980
0.690686 0.006246 -0.000338
28.484011 -1.166448 -0.063578
16.358776 2.099030 -0.512324
12.337887 1.188848 -0.090711
12.106804 0.099396 -0.173926
20.829917 -0.376475 0.351593
4.427166 -5.774120 -0.069404
12.361103 -0.045428 0.000358
21.624399 0.251894 -0.102345
0.028358 0.006242 0.000803
15.887120 -1.324444 0.053447
18.270654 -0.489875 0.186874
16.029687 -0.488661 0.199500
22.453575 -0.519201 0.546982
20.858756 -0.561026 1.745228
11.293422 -0.192292 -0.000779
22.318605 -0.637696 0.060034
6.786170 -0.194175 0.003916
17.872999 -0.508012 -0.210598
21.544261 -0.576351 -0.237666
3.725148 -0.347273 0.000610
7.485589 0.196139 -0.001975
22.850020 0.504740 0.291769
16.743318 -0.167094 -0.066923
20.405083 0.175823 -1.416689
8.737850 7.188770 -0.032694
18.397170 2.312845 0.926571
22.928140 -0.721532 0.020940
11.554889 1.310043 0.030478
21.674624 0.629290 -1.020716
0.142573 0.000467 0.000015
0.082568 0.035377 0.014774
18.277976 1.459873 2.053854
15.193783 -0.200755 0.411678
14.338323 1.432190 -0.005443
9.911597 0.030293 -0.531683
3.666581 -0.012447 -0.013999
16.604183 0.954922 -1.554912
16.518350 0.455337 -2.328386
22.200797 0.725471 -0.532589
19.328759 -0.349707 0.354440
19.388330 0.531497 -1.176200
23.505890 -0.017541 0.011079
21.587448 0.974728 -0.641169
12.507345 0.604505 -0.010756
16.482712 -1.531327 -0.673981
20.251569 0.364379 1.295825
2.396496 0.007128 -0.002227
22.036278 0.624905 -0.469285
12.479638 -3.541471 -0.032246
10.498283 -0.075992 -0.761585
21.786999 -0.601339 -0.143358
14.298232 0.925327 0.629781
0.098700 0.001295 -0.004032
2.752415 0.003788 0.046628
0.076787 -0.000417 0.001258
13.024623 3.884671 -0.012111
14.842688 2.348308 0.504176
0.138967 -0.000676 -0.004755
17.437643 -0.326126 1.677305
15.863451 0.098586 -0.033225
23.130137 -0.019389 0.136113
16.798710 -0.409249 0.846982
21.975496 -0.398811 0.347033
16.401010 1.787225 -0.003026
27.928536 -0.004108 -0.032524
0.015435 0.029569 -0.010342
17.775444 0.811653 0.366037
13.277033 -1.135284 0.520603
16.323602 0.461840 -1.527500
20.101702 0.219511 -1.888051
13.715286 0.470669 -0.297543
23.078656 -0.988561 -0.027553
4.206531 0.041850 0.017924
3.213277 -0.571202 -0.004472
22.910553 -0.665074 -0.024346
15.478941 0.434950 -2.683764
12.075892 0.550221 0.176782
23.086697 0.462772 0.127130
20.097993 -0.001831 0.998274
6.285426 0.307868 0.032991
6.336853 -0.078741 0.001210
21.604291 0.016050 0.594368
20.440455 0.307652 -1.507826
11.997453 0.546612 0.168309
16.746200 -1.534288 1.226030
12.398204 -1.162010 -0.066367
23.785807 0.531745 -0.031865
21.848852 0.420922 0.793156
17.476928 0.064521 -0.066708
13.169414 0.054697 0.082525
9.572645 -0.333387 -0.024004
16.238978 8.170673 0.033033
0.120800 -0.017095 0.023123
13.594968 4.778320 0.049573
17.330247 -0.352344 1.789258
15.468742 -0.028534 0.044354
19.581049 0.422816 -0.371368
23.074533 -0.332614 -0.039117
14.676894 0.471205 -0.046579
16.564731 -0.331065 1.203524
19.095386 0.410807 1.106184
21.597133 -0.714607 0.164443
21.431196 0.015350 -0.040993
0.252014 0.000065 0.002221
-0.002870 -0.004739 0.002538
18.889380 -0.021748 0.028150
23.744358 -0.623742 0.078356
14.697952 -5.199952 -0.015871
21.550093 0.597724 0.177560
19.931805 -0.620684 -0.104144
0.272742 0.000250 -0.000921
22.186483 -0.580909 0.085191
18.532700 -0.364004 0.898198
22.731125 -0.410106 -0.267865
16.903104 -0.287756 -3.000994
16.072444 -1.948973 0.008326
12.937324 1.796975 -0.025410
9.054101 -0.361471 -0.044986
4.984877 -0.006906 0.007706
15.925088 1.660978 -1.064572
13.818037 -0.497487 0.126620
-0.071364 -0.000900 -0.002106
22.474392 0.693944 0.051149
9.612596 1.613529 -0.016786
16.990761 0.499263 -0.526326
17.556272 0.387056 -1.088772
22.424382 0.267650 -0.125181
19.438241 -0.645570 0.307630
1.049083 0.008543 0.000018
19.790404 0.145941 -0.245545
23.805036 0.246133 -0.090822
15.887800 -0.308855 0.014106
17.974424 -0.188307 1.097113
12.955583 1.697655 0.013316
22.916248 -0.253452 -0.514480
18.818351 0.349067 -1.391396
5.287121 0.258878 -0.008781
15.899244 0.166904 -2.510908
4.358094 -0.065309 0.047931
23.480659 0.156312 -0.174877
-0.104140 0.033134 -0.004181
18.643998 0.568643 0.689326
18.384430 -0.878138 0.303210
2.863819 -0.066737 0.000679
23.583081 -0.560089 0.024302
23.161558 -0.767744 -0.045548
20.291565 1.561776 -0.694303
16.401910 -0.321120 -0.053734
13.896976 0.945664 0.014857
21.410000 0.626257 0.310330
18.442322 0.652253 -0.220620
17.690202 -0.279277 -2.290119
18.769647 0.377517 0.667154
0.240086 -0.002327 -0.000346
17.750980 -0.020871 0.508239
14.559494 1.245681 0.068594
12.556008 0.181322 0.015213
20.417662 -0.645471 0.231195
23.602854 -0.615112 0.038929
15.106298 0.493158 0.020685
18.576584 -0.501876 -0.358508
3.715539 0.422798 0.011115
7.285280 -0.190098 -0.040886
13.013833 1.217890 -0.045216
6.917325 -0.024386 0.013341
0.113967 -0.034630 0.011106
4.128838 0.915193 0.002953
21.328316 0.562810 0.238438
14.211921 0.752400 -0.074545
4.066714 0.032836 0.024470
22.195289 0.732663 -0.247530
14.558301 -7.327171 0.003190
22.344953 -0.609651 0.782143
13.636147 0.749925 -0.011788
8.694537 -1.118722 -0.006789
12.229298 -1.367741 -0.043723
21.407858 0.824238 0.337188
17.297617 0.488402 2.433505
23.606339 -0.372745 -0.031862
5.721495 0.142105 0.259422
12.543632 -0.471546 0.128211
4.728648 0.019808 0.018010
21.510928 0.056028 -0.060796
18.775144 -3.970993 -0.020538
14.328609 -0.354769 1.438157
21.838368 -0.661170 -0.191753
5.507431 0.069152 -0.033951
13.081068 -0.603374 0.021928
15.580226 -0.323972 0.093963
11.079433 -5.961560 0.026890
21.053992 -0.422851 0.024730
0.055258 0.000778 0.049884
1.835546 0.021859 -0.000034
7.711681 -0.011831 0.046971
23.244983 -0.730652 -0.131282
11.093708 0.060313 0.005689
20.722970 -0.207133 -0.102217
22.750940 -0.531753 0.033055
20.545453 -0.083357 -0.102342
20.285490 -0.903266 0.046184
4.425217 -0.383722 0.001809
21.801124 0.497681 -0.757091
19.879728 0.548398 -0.714806
6.994629 1.648978 -0.005102
18.274489 0.518023 -0.272507
0.012042 0.001974 -0.006843
22.049778 0.519534 -0.195881
19.783170 0.573937 0.196976
23.087101 0.531150 0.110178
20.744513 0.554739 -1.416790
18.689961 0.464014 -2.153891
22.952633 -0.348073 -0.012363
15.385875 1.081334 -0.018862
20.312842 -0.228192 -0.737240
18.555870 0.457150 -0.153506
18.423548 1.307541 -2.021391
12.037485 1.339060 0.047756
11.871787 -0.223290 -0.061300
10.930211 0.409517 -0.254497
14.064730 2.589327 0.011863
15.862789 -1.859636 -1.900831
0.049395 0.000778 -0.000100
20.159521 0.339274 -0.414015
17.148234 0.496758 0.000256
18.043199 -2.058380 -0.028604
21.204620 0.562607 -0.004813
21.937366 -0.464106 0.805875
1.846170 -3.291956 0.165068
9.929603 -0.571749 0.009303
15.144354 -1.498266 0.079512
17.251731 -2.118573 0.970715
6.002757 0.706427 -0.000765