<VTKFile type='UnstructuredGrid' version='1.0' byte_order='LittleEndian' header_type='UInt64'>
<UnstructuredGrid>
<Piece NumberOfCells='500' NumberOfPoints='500'>
<Points>
<DataArray NumberOfComponents='3' type='Float32' Name='Position' format='ascii'>
1.292706 0.807408 0.227723
2.041913 0.322548 0.117272
0.297365 0.977947 0.221542
2.032789 0.817449 0.183718
2.006422 0.772777 0.106364
0.146044 0.193002 0.246738
2.021840 0.236634 0.075397
1.940148 0.818697 0.207740
1.293320 0.809339 0.224811
1.261742 0.874458 0.227658
1.494969 0.136530 0.035591
0.258534 0.006938 0.058055
1.087549 0.766819 0.222083
0.635044 0.239736 0.237921
1.616576 0.800260 0.215233
2.029884 0.896507 0.149988
1.915773 0.264163 0.203722
1.909503 0.926367 0.159945
1.015330 0.876667 0.219150
2.028493 0.103892 0.112536
2.053310 0.240382 0.149626
0.158433 0.108075 0.229204
2.013011 0.752185 0.079681
0.303927 0.991944 0.150118
2.010016 0.889759 0.129730
2.047684 0.745451 0.119795
1.236560 0.489559 0.096010
2.034071 0.303870 0.160488
0.040552 0.851145 0.003077
0.874794 0.950753 0.221596
2.049422 0.718082 0.151819
0.541016 0.305718 0.242470
0.930192 0.974341 0.186740
2.022542 0.715620 0.181877
1.467689 0.976640 0.129637
1.844634 0.649174 0.201740
2.032977 0.238094 0.074622
2.000648 0.118576 0.122908
1.715343 0.659563 0.044934
1.894202 0.088436 0.068833
1.149227 0.051765 0.216605
0.575970 0.281974 0.239496
0.374168 0.291568 0.006988
0.600136 0.037305 0.032454
2.007880 0.710244 0.115067
0.209839 0.525676 0.008335
0.028789 0.128162 0.020373
2.001995 0.747523 0.166309
1.846615 0.936007 0.107053
2.032963 0.684623 0.203324
2.034140 0.855777 0.176953
0.022289 0.667882 0.223529
2.008327 0.295468 0.130869
0.041011 0.850981 0.002550
0.904270 0.444360 0.226915
1.694716 0.288925 0.208932
0.803854 0.881617 0.230476
1.472218 0.238420 0.036977
2.020040 0.916381 0.117455
1.162540 0.026707 0.167526
1.378103 0.130788 0.026796
2.033928 0.852710 0.179680
0.226383 0.992837 0.194132
2.009942 0.676050 0.191148
1.957031 0.709679 0.045320
0.188781 0.723822 0.001849
1.244322 0.192691 0.028905
2.031539 0.915199 0.125560
1.566323 0.071707 0.204913
2.018562 0.097872 0.154440
2.032726 0.151930 0.157049
0.950391 0.359281 0.025173
1.277528 0.981217 0.114519
2.012379 0.857800 0.088540
0.040651 0.652769 0.242632
1.135580 0.792991 0.027800
2.006516 0.709664 0.056035
2.006612 0.733044 0.069206
2.032027 0.708061 0.156368
2.047422 0.659033 0.158041
0.351226 0.206568 0.213702
2.008623 0.671327 0.150335
1.778026 0.933194 0.068402
2.000212 0.119345 0.120454
2.027649 0.788814 0.122788
0.588091 0.246445 0.239484
0.834529 0.975495 0.187009
2.037782 0.301018 0.135393
2.000514 0.077327 0.105807
2.037639 0.231862 0.074891
0.920401 0.693421 0.021011
2.043692 0.901627 0.126913
2.041219 0.688146 0.137356
1.788554 0.201342 0.040220
2.033186 0.327317 0.104475
0.190831 0.612459 0.249285
0.032040 0.560934 0.248819
2.044269 0.818918 0.199550
1.963094 0.848665 0.049145
1.724184 0.115109 0.201216
1.987835 0.233141 0.047318
0.188164 0.980541 0.172108
2.030091 0.839346 0.098504
2.033268 0.354557 0.077770
2.041484 0.819601 0.133527
2.016896 0.735843 0.177114
2.005133 0.350592 0.093012
2.030378 0.211665 0.125291
2.051344 0.818365 0.128576
1.622625 0.033506 0.114429
2.015030 0.096685 0.090606
1.991431 0.397672 0.184572
0.334937 0.908541 0.241409
2.022922 0.372593 0.103430
1.659745 0.782623 0.214859
1.958682 0.757346 0.041916
2.020701 0.649097 0.095229
2.010562 0.904400 0.171377
0.043395 0.992717 0.221799
1.228765 0.500508 0.073207
0.086194 0.042981 0.006151
1.650930 0.219528 0.212595
1.922062 0.920845 0.155864
1.936312 0.060693 0.123544
2.029796 0.721484 0.189331
1.102310 0.937779 0.027712
2.022575 0.188149 0.135854
2.017201 0.681083 0.191017
2.023163 0.803616 0.100864
1.663546 0.088464 0.038888
1.253628 0.090093 0.224218
0.010704 0.504373 0.222871
2.015481 0.887887 0.167531
1.907952 0.067041 0.146515
2.024290 0.352007 0.073397
2.044852 0.258797 0.047845
1.915463 0.364034 0.200648
2.018896 0.681016 0.127061
0.583383 0.984286 0.101318
0.793286 0.486566 0.233915
2.018782 0.639498 0.119193
2.033252 0.732225 0.044826
1.897034 0.301203 0.040367
2.020581 0.271387 0.143559
2.029636 0.772421 0.161292
0.771454 0.975154 0.190880
0.638530 0.016483 0.101129
2.030579 0.775512 0.178289
2.041007 0.276005 0.046258
1.892503 0.285694 0.039140
2.030297 0.105648 0.171593
1.729190 0.892677 0.207902
2.007401 0.237211 0.132114
2.043957 0.792899 0.145899
1.254505 0.978413 0.087683
1.110341 0.976793 0.175018
0.797873 0.032989 0.162099
1.451812 0.207780 0.033340
0.035914 0.567526 0.249056
1.036664 0.756500 0.226556
2.031014 0.717976 0.184907
1.295928 0.972160 0.178547
2.015580 0.844944 0.092940
2.035106 0.799893 0.114166
1.339483 0.077667 0.225050
2.022126 0.726487 0.178634
2.027879 0.840318 0.184213
2.017479 0.630500 0.093234
1.277457 0.027161 0.168831
0.573617 0.030255 0.168108
0.038922 0.988110 0.128812
2.017105 0.149523 0.065801
2.002765 0.755692 0.135449
1.564004 0.810911 0.216877
2.024452 0.367358 0.155246
2.029788 0.686933 0.179488
0.050248 0.985359 0.006910
2.043170 0.614473 0.123196
2.022747 0.721939 0.186483
2.054804 0.758295 0.109029
2.041637 0.681193 0.088195
1.533250 0.914483 0.041563
1.794862 0.282774 0.209032
1.595070 0.957912 0.174978
0.157898 0.023212 0.080584
2.026112 0.916278 0.087320
1.851021 0.920536 0.072009
0.038547 0.989899 0.137236
2.043955 0.337547 0.127159
0.727581 0.805145 0.237275
2.014167 0.830135 0.092786
2.021179 0.297030 0.060840
2.006074 0.222603 0.150129
2.012553 0.718654 0.076826
0.142414 0.880181 0.246354
2.014067 0.221852 0.075742
2.022074 0.220839 0.125137
1.026529 0.028467 0.157764
2.024098 0.190148 0.166427
1.583289 0.086219 0.036188
2.031926 0.750208 0.100893
2.032816 0.780082 0.070591
0.658018 0.907003 0.018997
2.036882 0.229357 0.050515
0.769977 0.026975 0.191728
2.032852 0.230892 0.118425
0.014253 0.160416 0.234458
2.019598 0.843053 0.176573
2.016902 0.101517 0.145640
0.563555 0.474811 0.241394
2.045287 0.712677 0.129932
2.035427 0.694947 0.126864
2.048916 0.864810 0.125488
2.001647 0.913888 0.124021
1.506997 0.061854 0.042126
2.035264 0.224157 0.103852
2.025508 0.345656 0.154944
2.035546 0.726023 0.059531
2.008734 0.276993 0.174787
0.147999 0.027194 0.023528
2.014314 0.785718 0.158959
1.801783 0.399822 0.059541
1.284764 0.077162 0.023969
2.027677 0.625261 0.106097
2.002812 0.754347 0.144586
1.440334 0.026923 0.128075
2.012800 0.666294 0.074063
0.753442 0.544191 0.014577
0.877547 0.017479 0.098007
1.813962 0.346789 0.204056
2.009621 0.190728 0.054982
0.040511 0.706767 0.241215
0.721274 0.615822 0.014540
2.037639 0.183166 0.137945
1.571904 0.040200 0.169604
0.429791 0.970611 0.214990
2.030415 0.333994 0.097299
1.617550 0.723003 0.033904
2.021489 0.647323 0.134533
0.943020 0.949586 0.207753
0.848209 0.089061 0.020853
1.802276 0.687206 0.209038
2.017824 0.348008 0.065318
2.038313 0.328636 0.190803
2.017192 0.772864 0.111412
1.145844 0.500893 0.051747
1.881529 0.675249 0.042760
0.523252 0.981185 0.159666
1.274549 0.066334 0.213392
0.916121 0.149320 0.025036
1.987000 0.678780 0.200716
2.005690 0.712882 0.141472
0.926429 0.989272 0.142830
1.587065 0.965692 0.115742
2.019636 0.910267 0.135929
0.982180 0.259752 0.227849
2.006319 0.572720 0.097924
0.033489 0.995469 0.046596
0.298275 0.794413 0.005318
0.060483 0.624357 0.211206
2.007652 0.682386 0.138880
0.249410 0.619118 0.238903
2.005989 0.126293 0.114610
2.008474 0.747795 0.153841
2.001298 0.857592 0.150809
2.025124 0.119820 0.148109
0.601632 0.387414 0.013631
2.039586 0.412706 0.106171
2.024485 0.316321 0.073033
0.825985 0.821781 0.233663
2.013345 0.882962 0.090390
0.037483 0.188980 0.013610
2.015784 0.275097 0.093220
2.010821 0.308547 0.173000
2.033909 0.289244 0.112282
2.042875 0.331086 0.077792
2.039336 0.339690 0.068817
2.034917 0.195737 0.108191
2.013953 0.922460 0.103780
2.027577 0.749487 0.077519
2.000638 0.887062 0.082849
2.043238 0.860607 0.086299
1.638541 0.087217 0.038094
1.907408 0.932301 0.107502
1.926235 0.345652 0.199310
1.517139 0.114114 0.028445
2.036560 0.107947 0.066608
0.093827 0.964393 0.239478
2.018576 0.840891 0.076544
1.080155 0.863290 0.030724
1.644379 0.904329 0.211048
2.003428 0.277166 0.164066
2.040073 0.728954 0.132857
0.959339 0.416747 0.211924
0.928014 0.050902 0.034345
1.824737 0.712752 0.037217
2.038919 0.091718 0.151174
1.756058 0.160368 0.037936
2.010286 0.565693 0.109033
0.892319 0.462823 0.227398
1.084480 0.727259 0.182065
2.010992 0.147421 0.096275
1.992305 0.831028 0.207461
2.038118 0.748146 0.141266
1.730250 0.694704 0.215721
1.998700 0.251998 0.044922
2.038461 0.336184 0.102265
1.649314 0.961755 0.123914
1.010285 0.087136 0.027589
1.615330 0.947012 0.070655
2.036578 0.240857 0.056613
0.853028 0.475725 0.017397
1.673114 0.941579 0.080353
2.026656 0.128085 0.135971
2.011742 0.078111 0.152927
0.014227 0.509121 0.234537
1.940644 0.294051 0.042917
0.975770 0.198151 0.233176
2.020640 0.930446 0.117839
2.012230 0.680055 0.167305
1.984791 0.734657 0.045127
2.025570 0.769084 0.186028
1.686893 0.688319 0.034963
0.508182 0.982596 0.197209
0.039318 0.426314 0.016507
2.002534 0.716035 0.146029
0.029503 0.373241 0.239859
1.061161 0.040209 0.037118
2.028122 0.221336 0.119898
2.000288 0.313538 0.179206
0.013043 0.514367 0.241400
0.782393 0.410301 0.229937
0.730893 0.030974 0.043227
2.023364 0.091646 0.073414
0.007811 0.605221 -0.000325
2.022095 0.088833 0.073625
1.592821 0.706829 0.042023
1.637851 0.735237 0.032070
0.009497 0.279478 0.235755
2.048770 0.749451 0.090866
2.029164 0.787634 0.187305
1.282207 0.763341 0.037959
2.001214 0.102727 0.166548
0.914862 0.976553 0.066900
0.307132 0.133737 0.025705
2.016937 0.339622 0.074967
0.018953 0.890552 0.250145
2.000588 0.799573 0.125313
2.018788 0.585346 0.066433
1.694977 0.640577 0.202732
2.028930 0.271324 0.174884
1.706677 0.090392 0.043615
0.167665 0.982457 0.216917
2.026492 0.348990 0.140628
1.028352 0.939391 0.226557
2.033815 0.595950 0.076129
0.215709 0.010102 0.208934
2.031101 0.930411 0.137363
1.835797 0.870002 0.205796
1.624136 0.922438 0.042569
2.025588 0.792722 0.125310
2.036936 0.079405 0.138733
0.851906 0.963738 0.203581
2.006244 0.790524 0.087015
0.556540 0.026018 0.040708
0.570436 0.019732 0.163387
1.023785 0.329615 0.067312
0.018058 0.747058 0.010443
2.007610 0.172173 0.078813
1.723324 0.207076 0.214750
1.171756 0.495168 0.053567
0.289640 0.531687 0.229432
2.020352 0.301361 0.168629
1.478116 0.920918 0.035765
2.054257 0.245705 0.112442
1.054459 0.466395 0.106813
2.005327 0.901170 0.181384
1.543871 0.090406 0.215804
2.014286 0.350295 0.187820
1.864145 0.940278 0.139911
2.040402 0.096788 0.101012
2.001294 0.107314 0.184666
0.635956 0.033180 0.212980
2.038295 0.102904 0.177095
2.025195 0.408903 0.144709
1.060597 0.973827 0.086451
2.020001 0.799353 0.160508
2.012249 0.715509 0.135389
0.757455 0.985024 0.093005
0.034259 -0.000089 0.183998
1.903942 0.898181 0.056875
0.558005 0.482746 0.008270
2.047931 0.313367 0.104281
2.023425 0.371297 0.189176
2.033696 0.125638 0.135117
1.408517 0.820945 0.028213
1.605071 0.083211 0.211542
0.097569 0.984439 0.021100
2.001362 0.282336 0.081177
1.019978 0.259288 0.221126
2.016776 0.724579 0.168284
0.014712 0.013045 0.083429
2.007751 0.161367 0.097244
0.245269 0.958330 0.016257
1.950869 0.921354 0.078840
1.430775 0.058203 0.208088
1.852578 0.669288 0.206433
2.023007 0.116935 0.149028
2.001221 0.669073 0.192203
2.049318 0.245117 0.121517
1.464350 0.233016 0.211679
2.014259 0.206345 0.053412
1.555382 0.042749 0.175263
0.344049 0.989300 0.169584
2.017891 0.273142 0.089601
1.062592 0.048553 0.032872
2.001818 0.350240 0.144337
2.018226 0.826991 0.177203
1.192895 0.504667 0.191506
2.040798 0.271093 0.087862
2.039047 0.789668 0.048091
0.709906 0.088881 0.018983
1.057471 0.940609 0.220793
2.010548 0.695931 0.089083
1.871157 0.346553 0.199142
1.829070 0.591540 0.057443
2.024173 0.282589 0.075697
1.478950 0.819964 0.225651
2.025903 0.091580 0.162508
2.039833 0.740614 0.110457
2.045441 0.386358 0.068500
0.790892 0.030933 0.194590
2.035768 0.751377 0.149175
2.021132 0.167951 0.105210
2.030107 0.426089 0.134212
0.820003 0.560285 0.016219
1.875301 0.338984 0.199611
2.033975 0.332578 0.095046
2.024310 0.858399 0.143123
0.988195 0.249514 0.024851
2.036353 0.070023 0.119429
2.006043 0.826376 0.044697
2.033033 0.715423 0.127692
2.040083 0.091923 0.085418
1.814966 0.428093 0.109640
2.038732 0.267869 0.046259
2.022422 0.186151 0.198259
1.903225 0.107379 0.200295
2.015052 0.920555 0.112129
0.257292 0.616755 0.003614
0.100746 0.685765 0.247442
2.017961 0.096528 0.184175
1.589764 0.183770 0.030772
2.024277 0.380779 0.080066
0.353550 0.639655 0.011720
1.836998 0.724430 0.042561
1.533736 0.189431 0.220368
2.019767 0.325567 0.131726
2.010451 0.114133 0.153634
1.682621 0.323062 0.211415
0.531013 0.025415 0.040012
1.870696 0.866991 0.043543
2.008738 0.657800 0.178482
0.040697 0.572517 0.014525
0.953415 0.589244 0.219035
1.269799 0.023874 0.162826
1.179783 0.047253 0.213784
2.024197 0.296343 0.159639
1.164674 0.835255 0.021040
2.003979 0.189402 0.181230
0.047646 0.852974 -0.000133
1.397950 0.913038 0.222461
0.240079 0.953152 0.011573
0.137461 0.004001 0.207797
2.007821 0.839730 0.099613
1.839609 0.102665 0.198340
0.027324 0.375052 0.238715
1.490748 0.925479 0.035958
2.033046 0.667468 0.200239
1.236179 0.519654 0.126622
0.048566 0.939911 0.002060
1.954569 0.288820 0.205301
0.019669 0.386503 0.244988
2.042207 0.866436 0.076275
1.019293 0.967068 0.050354
2.005977 0.763890 0.090744
1.165041 0.498363 0.051579
0.994473 0.969601 0.051200
1.840763 0.401405 0.057325
1.847566 0.612887 0.204840
1.772642 0.937181 0.091052
1.694899 0.954992 0.109751
0.632603 0.976967 0.072895
0.568392 0.019714 0.056920
0.924110 0.025183 0.176000
2.019279 0.075744 0.157400
2.007864 0.166258 0.184835
1.885816 0.120139 0.199934
2.033492 0.829768 0.188287
2.009141 0.738372 0.125480
</DataArray>
</Points>
<PointData>
<DataArray NumberOfComponents='1' type='Int32' Name='ParticleType' format='ascii'>
1
1
1
1
1
1
1
1
1
1
1
1
1
1
1
1
1
1
1
1
1
1
1
1
1
1
1
1
1
1
1
1
1
1
1
1
1
1
1
1
1
1
1
1
1
1
1
1
1
1
1
1
1
1
1
1
1
1
1
1
1
1
1
1
1
1
1
1
1
1
1
1
1
1
1
1
1
1
1
1
1
1
1
1
1
1
1
1
1
1
1
1
1
1
1
1
1
1
1
1
1
1
1
1
1
1
1
1
1
1
1
1
1
1
1
1
1
1
1
1
1
1
1
1
1
1
1
1
1
1
1
1
1
1
1
1
1
1
1
1
1
1
1
1
1
1
1
1
1
1
1
1
1
1
1
1
1
1
1
1
1
1
1
1
1
1
1
1
1
1
1
1
1
1
1
1
1
1
1
1
1
1
1
1
1
1
1
1
1
1
1
1
1
1
1
1
1
1
1
1
1
1
1
1
1
1
1
1
1
1
1
1
1
1
1
1
1
1
1
1
1
1
1
1
1
1
1
1
1
1
1
1
1
1
1
1
1
1
1
1
1
1
1
1
1
1
1
1
1
1
1
1
1
1
1
1
1
1
1
1
1
1
1
1
1
1
1
1
1
1
1
1
1
1
1
1
1
1
1
1
1
1
1
1
1
1
1
1
1
1
1
1
1
1
1
1
1
1
1
1
1
1
1
1
1
1
1
1
1
1
1
1
1
1
1
1
1
1
1
1
1
1
1
1
1
1
1
1
1
1
1
1
1
1
1
1
1
1
1
1
1
1
1
1
1
1
1
1
1
1
1
1
1
1
1
1
1
1
1
1
1
1
1
1
1
1
1
1
1
1
1
1
1
1
1
1
1
1
1
1
1
1
1
1
1
1
1
1
1
1
1
1
1
1
1
1
1
1
1
1
1
1
1
1
1
1
1
1
1
1
1
1
1
1
1
1
1
1
1
1
1
1
1
1
1
1
1
1
1
1
1
1
1
1
1
1
1
1
1
1
1
1
1
1
1
1
1
1
1
1
1
1
1
1
1
1
1
1
1
1
1
1
1
1
1
1
1
1
1
1
1
1
1
1
1
1
1
1
1
1
1
1
1
1
1
1
1
1
1
1
1
1
1
1
1
1
1
1
1
1
</DataArray>
<DataArray NumberOfComponents='1' type='Int32' Name='ParticleID' format='ascii'>
0
1
2
3
4
5
6
7
8
9
10
11
12
13
14
15
16
17
18
19
20
21
22
23
24
25
26
27
28
29
30
31
32
33
34
35
36
37
38
39
40
41
42
43
44
45
46
47
48
49
50
51
52
53
54
55
56
57
58
59
60
61
62
63
64
65
66
67
68
69
70
71
72
73
74
75
76
77
78
79
80
81
82
83
84
85
86
87
88
89
90
91
92
93
94
95
96
97
98
99
100
101
102
103
104
105
106
107
108
109
110
111
112
113
114
115
116
117
118
119
120
121
122
123
124
125
126
127
128
129
130
131
132
133
134
135
136
137
138
139
140
141
142
143
144
145
146
147
148
149
150
151
152
153
154
155
156
157
158
159
160
161
162
163
164
165
166
167
168
169
170
171
172
173
174
175
176
177
178
179
180
181
182
183
184
185
186
187
188
189
190
191
192
193
194
195
196
197
198
199
200
201
202
203
204
205
206
207
208
209
210
211
212
213
214
215
216
217
218
219
220
221
222
223
224
225
226
227
228
229
230
231
232
233
234
235
236
237
238
239
240
241
242
243
244
245
246
247
248
249
250
251
252
253
254
255
256
257
258
259
260
261
262
263
264
265
266
267
268
269
270
271
272
273
274
275
276
277
278
279
280
281
282
283
284
285
286
287
288
289
290
291
292
293
294
295
296
297
298
299
300
301
302
303
304
305
306
307
308
309
310
311
312
313
314
315
316
317
318
319
320
321
322
323
324
325
326
327
328
329
330
331
332
333
334
335
336
337
338
339
340
341
342
343
344
345
346
347
348
349
350
351
352
353
354
355
356
357
358
359
360
361
362
363
364
365
366
367
368
369
370
371
372
373
374
375
376
377
378
379
380
381
382
383
384
385
386
387
388
389
390
391
392
393
394
395
396
397
398
399
400
401
402
403
404
405
406
407
408
409
410
411
412
413
414
415
416
417
418
419
420
421
422
423
424
425
426
427
428
429
430
431
432
433
434
435
436
437
438
439
440
441
442
443
444
445
446
447
448
449
450
451
452
453
454
455
456
457
458
459
460
461
462
463
464
465
466
467
468
469
470
471
472
473
474
475
476
477
478
479
480
481
482
483
484
485
486
487
488
489
490
491
492
493
494
495
496
497
498
499
</DataArray>
<DataArray NumberOfComponents='1' type='Int8' Name='IsActive' format='ascii'>
1
0
1
0
0
1
0
1
1
1
1
1
1
1
1
0
1
1
1
0
0
1
0
1
0
0
1
0
1
1
0
1
1
0
1
1
0
0
1
1
1
1
1
1
0
1
1
0
1
1
0
1
0
1
1
1
1
1
0
1
1
0
1
0
1
1
1
0
1
0
0
1
1
0
1
1
0
0
0
0
1
0
1
0
0
1
1
0
0
0
1
0
0
1
0
1
1
0
1
1
1
1
0
0
0
0
0
0
0
1
0
1
1
0
1
1
0
0
1
1
1
1
1
1
0
1
0
0
0
1
1
1
0
1
0
0
1
0
1
1
0
0
1
0
0
1
1
0
1
1
0
1
0
0
1
1
1
1
1
1
0
1
0
0
1
0
0
0
1
1
1
0
0
1
0
0
1
0
0
0
0
1
1
1
1
0
1
1
0
1
0
0
0
0
1
0
0
1
0
1
0
0
1
0
1
0
1
0
0
1
0
0
0
0
1
0
0
0
0
1
0
1
1
0
0
1
0
1
1
1
0
1
1
0
1
1
0
1
0
1
1
1
0
0
0
1
1
1
1
1
1
0
1
1
0
1
0
1
1
1
0
1
0
0
0
0
1
0
0
1
0
1
0
0
0
0
0
0
0
0
0
0
1
1
1
1
0
1
0
1
1
0
0
1
1
1
0
1
0
1
1
0
1
0
1
1
0
1
1
1
0
1
1
0
0
1
1
1
0
0
1
0
1
1
1
0
1
1
0
0
1
1
1
0
0
0
1
1
1
0
0
1
0
1
1
0
0
0
1
1
0
1
1
0
1
0
1
0
1
1
0
0
1
0
1
1
1
1
0
1
1
1
0
1
0
1
0
1
0
1
0
0
1
0
0
1
0
0
1
0
1
1
0
0
0
1
1
1
0
1
0
1
0
1
1
1
1
0
0
0
1
0
1
1
0
1
0
0
1
0
0
1
1
0
1
1
0
1
0
0
0
1
0
0
0
1
1
0
0
1
0
0
0
0
1
0
0
1
0
1
1
0
1
0
1
1
1
0
0
1
1
1
0
1
1
1
1
0
1
0
0
1
1
1
0
1
1
1
0
1
1
1
1
0
1
0
1
1
1
1
1
1
1
1
1
0
0
1
0
0
</DataArray>
<DataArray NumberOfComponents='1' type='Int32' Name='ParticleTetID' format='ascii'>
26930
-50400
106069
-69862
-102510
95701
-69112
47661
22521
94644
44435
47956
3740
104042
32329
-93293
31372
10813
68467
-98831
-12127
76341
-98411
5978
-93293
-102840
48939
-91191
100560
87575
-34180
91466
19370
-39168
98729
24988
-69112
-42296
22851
61701
69622
31120
22608
54854
-90119
59157
94294
-93119
51674
-82225
-90337
80251
-25302
100560
80937
37449
87974
35297
-27681
78315
102454
-90337
97319
-57434
103068
60649
46768
-27681
30757
-104925
-80727
87524
38282
-96019
80251
15471
-75610
-98411
-34180
-57434
87985
-57434
7512
-42296
-102510
97700
67719
-50400
-98306
-69112
39033
-93293
-104802
48232
-83399
79062
99903
-90337
16917
26297
40664
39977
-96019
-58762
-86274
-93119
-58762
-98765
-86274
71739
-96731
44271
78816
-24526
30701
89023
-87306
-96325
98699
69735
100821
6245
38034
104764
-39168
94637
-98765
-39168
-17626
68473
70290
100092
-96325
55908
-58762
-64130
87645
-104802
12530
35437
-95998
-92602
8112
-12127
-70156
11811
89797
-70156
-92373
10884
-44138
7900
-83215
-102510
95720
97551
95432
13569
99903
17087
-39168
79507
-96019
-17626
58513
-39168
-90337
-74393
83762
105750
97137
-87514
-102840
76810
-93819
-39168
99126
-96354
-39168
-102840
-91248
42870
42977
62104
91677
-89958
90343
97137
-96849
57810
-96019
-92373
-85990
-91248
70045
-69112
-83215
85000
-85990
44954
-102840
-83820
88310
-64130
105712
-83215
100903
-90337
-98831
85065
-34180
-104802
-98210
-27681
46653
-69112
-98308
-91248
-61396
99302
-70156
104771
60244
-74393
-102840
100553
-82524
90640
83560
84237
-70433
69970
59354
-99021
35600
10409
-83399
9169
-104802
46564
34558
21495
-58762
-98308
-102510
82888
57859
36737
78164
82139
20599
-34180
95396
81745
-27681
5858
-84540
99980
98158
39764
-104802
24231
-42296
-93119
-98210
-42296
95144
-90131
-83399
95080
-96019
85474
-94130
-91191
-25302
-83399
-58762
-99021
-79211
-98411
-48492
-96019
72950
322
68895
79740
-100353
93306
-96019
1107
51706
-61396
-34180
60916
38221
76146
-98831
78937
-100422
3998
19048
-24687
105549
-102840
25760
40664
-83399
9312
61178
5846
-64130
29738
56928
-42296
-104925
100092
98037
52440
-27681
-57434
88045
-94146
41301
21054
74099
-34180
101063
81730
-83215
-91191
100092
79085
65395
-96731
-101355
-96731
104511
9169
98826
-98411
-94146
25322
-44138
68541
97416
-58762
-71594
-17626
-25092
29023
-61396
20429
79807
-96849
93652
-25092
66943
-27681
37773
3447
-17626
-98831
54097
-83820
9612
105750
86770
100743
-56272
57960
42340
3368
-91191
101929
-83215
46306
-96325
16006
-98308
448
-98306
-44138
58117
-44138
-19405
65222
-70156
-34180
61828
-101044
62677
25726
-94130
-98308
-42296
1198
40863
95712
-94130
7257
-93119
101509
-24687
82705
89957
72436
24988
-42296
-42146
-83215
75271
-70433
23757
57237
-94130
81730
-99096
-69862
7219
-94130
-99911
66349
97826
-91248
73065
67258
-92373
35142
-104925
-102840
-24526
105712
-102840
-24687
-19405
61895
69905
-83399
-98210
47152
-98831
-79597
-34180
-96731
31092
-92373
-99721
7860
-27681
57508
14135
-44138
14915
-24526
79163
58120
70730
-50400
-42296
39113
12438
83702
-42146
88021
104483
83762
79904
-95447
73365
-99721
-100561
38683
82705
87735
-96019
57820
101063
101929
-42146
24415
99121
91714
101063
-96019
42180
-98411
175
27167
25816
25598
5702
30264
65486
28164
78815
-104925
-99721
7860
-90337
-102840
</DataArray>
<DataArray NumberOfComponents='3' type='Float32' Name='vels' format='ascii'>
14.483942 0.273289 0.003876
22.746117 0.571945 -0.290697
5.387716 0.010091 0.009558
20.081773 -0.217840 -0.277921
23.484112 -0.510887 0.083072
1.151207 -0.005909 0.001911
20.333378 0.277334 -0.621174
12.699173 -0.547966 -0.109134
16.058984 0.221126 0.001952
15.509901 -0.048020 -0.005971
5.706354 0.937215 0.006427
1.327989 0.001595 -0.001668
15.588924 6.505956 0.105565
4.296003 -0.408055 0.001293
13.421986 -4.599929 -0.008610
20.644419 -0.244898 0.011251
12.256714 0.992063 -0.057561
15.847000 -0.537662 -0.124139
16.559483 3.317065 -0.028054
19.044396 -1.244907 -0.238396
21.835456 0.067503 1.640637
5.500693 -0.090201 0.036070
20.051412 -0.328575 -0.076616
1.984841 -0.005056 0.006295
18.297037 -0.214221 0.115799
22.591256 -0.226395 0.244628
3.138013 -0.149924 0.099973
21.418610 0.522880 0.667956
0.276667 0.032032 -0.028064
7.387774 0.373522 0.037098
22.058982 -0.221339 0.905368
2.707863 -0.169786 -0.000303
9.455960 0.325830 0.078741
19.420937 -0.419907 0.689956
13.841485 -0.250827 -0.027538
0.251732 -0.027208 0.011991
19.690416 0.183231 -1.354405
17.262796 -0.581290 -0.236368
11.959728 -4.695132 0.010472
2.081341 0.057124 0.000100
5.261403 -0.016825 0.007618
3.830205 -0.261959 0.001084
2.476058 -0.036189 0.000073
4.683911 -0.088246 0.001208
23.253517 -0.506630 -0.243077
2.947408 -0.000449 -0.001042
-0.180691 -0.000182 -0.000088
21.234953 -0.478901 -0.021576
13.936298 -0.518021 0.010368
15.336051 -0.375124 2.450828
15.641460 0.592641 2.478244
-0.236915 -0.028752 0.000129
23.583462 0.705706 0.031841
0.042190 0.065234 -0.008564
2.662498 -1.228043 0.009629
12.821957 5.131524 0.011092
7.215230 0.952313 0.009500
23.198521 5.167853 0.038224
16.294222 1.334800 -0.294998
15.859325 -0.165033 0.046994
27.571810 -0.189916 0.009788
15.971599 0.661878 2.362355
1.364322 -0.003951 0.010520
16.469972 -0.440812 0.460427
12.262847 -0.505312 0.138809
0.711741 0.006369 -0.000369
18.992827 1.038983 0.040505
16.358776 2.099030 -0.512324
17.849493 1.773547 -0.029692
12.106804 0.099396 -0.173926
20.829917 -0.376475 0.351593
2.496339 -3.905912 -0.067500
15.456696 0.013334 -0.030275
21.624399 0.251894 -0.102345
0.034294 0.006081 0.000904
17.764391 1.937485 0.008121
18.270654 -0.489875 0.186874
16.029687 -0.488661 0.199500
22.453575 -0.519201 0.546982
20.858756 -0.561026 1.745228
9.940045 -0.123083 -0.003523
22.318605 -0.637696 0.060034
7.586337 -0.328798 -0.015596
17.872999 -0.508012 -0.210598
21.544261 -0.576351 -0.237666
3.731045 -0.286528 0.000041
7.516945 0.599302 0.023374
22.850020 0.504740 0.291769
16.743318 -0.167094 -0.066923
20.405083 0.175823 -1.416689
2.854625 2.481048 0.005082
18.397170 2.312845 0.926571
22.928140 -0.721532 0.020940
18.991765 3.843004 0.001394
21.674624 0.629290 -1.020716
0.314216 0.000852 0.000031
0.241419 0.032006 0.018304
18.277976 1.459873 2.053854
13.578602 -0.257287 0.247132
13.078644 1.145934 0.003551
16.333189 0.280739 0.035391
4.473747 0.009702 -0.012527
16.604183 0.954922 -1.554912
16.518350 0.455337 -2.328386
22.200797 0.725471 -0.532589
19.328759 -0.349707 0.354440
19.388330 0.531497 -1.176200
23.505890 -0.017541 0.011079
21.587448 0.974728 -0.641169
13.400987 0.585216 0.014264
16.482712 -1.531327 -0.673981
15.635122 0.410811 0.159283
2.116365 0.003576 -0.002102
22.036278 0.624905 -0.469285
16.696535 -6.158561 -0.031586
12.650746 -0.433185 0.180410
21.786999 -0.601339 -0.143358
14.298232 0.925327 0.629781
0.409793 0.005669 0.002119
2.951933 -0.125741 0.122066
0.091667 0.000040 0.001547
12.859158 4.616909 0.005078
17.040000 -0.712442 -0.022292
0.069023 -0.000221 -0.004728
17.437643 -0.326126 1.677305
7.999383 0.315204 0.002137
23.130137 -0.019389 0.136113
16.798710 -0.409249 0.846982
21.975496 -0.398811 0.347033
3.466944 0.334706 0.016483
15.471979 0.052822 -0.031003
-0.021748 0.029185 -0.008875
17.775444 0.811653 0.366037
12.643252 0.276978 -0.143207
16.323602 0.461840 -1.527500
20.101702 0.219511 -1.888051
13.865707 0.971618 -0.106174
23.078656 -0.988561 -0.027553
4.158270 0.039914 0.002855
3.943996 -0.122876 -0.000532
22.910553 -0.665074 -0.024346
15.478941 0.434950 -2.683764
12.280993 1.405488 0.011850
23.086697 0.462772 0.127130
20.097993 -0.001831 0.998274
6.687073 0.146693 0.030462
4.499866 -0.037888 -0.007600
21.604291 0.016050 0.594368
20.440455 0.307652 -1.507826
12.153160 1.288126 0.015282
16.746200 -1.534288 1.226030
15.707627 -1.734406 -0.032731
23.785807 0.531745 -0.031865
21.848852 0.420922 0.793156
12.385997 0.042843 0.004044
12.000329 0.142673 0.014966
8.656913 -0.310750 0.088448
23.631914 1.920290 -0.010448
0.101018 -0.010448 0.021192
12.140704 7.786018 0.106375
17.330247 -0.352344 1.789258
15.028162 0.028993 -0.008164
19.581049 0.422816 -0.371368
23.074533 -0.332614 -0.039117
14.519476 0.054447 0.019717
16.564731 -0.331065 1.203524
19.095386 0.410807 1.106184
21.597133 -0.714607 0.164443
16.992884 0.045778 -0.033559
0.050373 0.000014 0.002028
-0.061945 -0.003117 0.006106
18.889380 -0.021748 0.028150
23.744358 -0.623742 0.078356
18.190073 -5.585407 -0.011506
21.550093 0.597724 0.177560
19.931805 -0.620684 -0.104144
0.209873 0.000165 -0.000596
22.186483 -0.580909 0.085191
18.532700 -0.364004 0.898198
22.731125 -0.410106 -0.267865
16.903104 -0.287756 -3.000994
16.971205 -1.472502 -0.023269
13.123268 2.756148 -0.022294
13.504450 -0.776376 -0.054839
5.120549 -0.008706 0.001752
15.925088 1.660978 -1.064572
10.593871 -0.418649 0.057063
0.015303 -0.001716 -0.007264
22.474392 0.693944 0.051149
4.810470 0.648731 0.006845
16.990761 0.499263 -0.526326
17.556272 0.387056 -1.088772
22.424382 0.267650 -0.125181
19.438241 -0.645570 0.307630
1.148395 0.009376 -0.000023
19.790404 0.145941 -0.245545
23.805036 0.246133 -0.090822
15.044561 -0.449725 0.025373
17.974424 -0.188307 1.097113
15.248836 1.679690 -0.012590
22.916248 -0.253452 -0.514480
18.818351 0.349067 -1.391396
5.418607 0.222065 -0.017206
15.899244 0.166904 -2.510908
1.207474 -0.035870 -0.005601
23.480659 0.156312 -0.174877
-0.123079 0.030785 -0.003457
18.643998 0.568643 0.689326
18.384430 -0.878138 0.303210
2.892660 -0.045033 0.001826
23.583081 -0.560089 0.024302
23.161558 -0.767744 -0.045548
20.291565 1.561776 -0.694303
16.401910 -0.321120 -0.053734
22.944638 1.464232 0.074961
21.410000 0.626257 0.310330
18.442322 0.652253 -0.220620
17.690202 -0.279277 -2.290119
18.769647 0.377517 0.667154
0.182027 -0.001778 -0.000246
17.750980 -0.020871 0.508239
1.866740 0.331460 0.004724
13.150164 -0.197269 -0.057307
20.417662 -0.645471 0.231195
23.602854 -0.615112 0.038929
15.184498 0.234661 0.026957
18.576584 -0.501876 -0.358508
3.955008 0.378065 -0.001826
6.870328 -0.197037 -0.020363
12.844452 2.343933 -0.018138
6.917325 -0.024386 0.013341
0.059588 -0.033876 0.009544
4.396776 0.740752 -0.002203
21.328316 0.562810 0.238438
15.755830 0.854194 -0.042917
3.719615 0.009651 -0.004599
22.195289 0.732663 -0.247530
13.573039 -7.428055 0.027250
22.344953 -0.609651 0.782143
12.328105 0.726903 0.122315
6.764519 -0.616371 -0.004192
12.199346 -2.365743 -0.038215
21.407858 0.824238 0.337188
17.297617 0.488402 2.433505
23.606339 -0.372745 -0.031862
7.805749 -0.009962 -0.006058
12.654599 -1.510453 0.037762
4.705054 0.013933 0.033192
6.191645 -0.104965 0.047886
11.538943 -2.936576 0.005739
13.796375 -0.434746 -0.283796
21.838368 -0.661170 -0.191753
4.980902 0.077129 -0.029442
15.089523 -0.664995 0.035080
15.580226 -0.323972 0.093963
8.104972 -6.267137 0.039160
21.053992 -0.422851 0.024730
-0.010528 0.000665 0.037884
19.292602 0.199256 -0.021769
10.836201 -0.096417 0.007942
23.244983 -0.730652 -0.131282
3.925393 0.016579 0.001073
20.722970 -0.207133 -0.102217
22.750940 -0.531753 0.033055
20.545453 -0.083357 -0.102342
20.285490 -0.903266 0.046184
4.601108 -0.302175 0.001253
21.801124 0.497681 -0.757091
19.879728 0.548398 -0.714806
6.753589 1.265947 -0.001608
18.274489 0.518023 -0.272507
0.027333 0.002233 -0.007450
22.049778 0.519534 -0.195881
19.783170 0.573937 0.196976
23.087101 0.531150 0.110178
20.744513 0.554739 -1.416790
18.689961 0.464014 -2.153891
22.952633 -0.348073 -0.012363
15.385875 1.081334 -0.018862
20.312842 -0.228192 -0.737240
18.555870 0.457150 -0.153506
18.423548 1.307541 -2.021391
12.870618 1.316321 0.087489
14.328523 -0.456940 0.063754
17.862063 1.371991 -0.159172
16.319323 2.194319 0.019757
15.862789 -1.859636 -1.900831
0.024356 0.000875 -0.000027
20.159521 0.339274 -0.414015
17.687346 2.924735 -0.011062
15.869634 -2.267246 -0.024109
21.204620 0.562607 -0.004813
21.937366 -0.464106 0.805875
2.642738 -3.086782 0.120311
10.536712 -0.577876 -0.034957
15.289978 -3.090237 0.003172
17.251731 -2.118573 0.970715
12.752114 1.790230 0.003301
21.945310 -0.394043 -0.007759