<VTKFile type='UnstructuredGrid' version='1.0' byte_order='LittleEndian' header_type='UInt64'>
<UnstructuredGrid>
<Piece NumberOfCells='500' NumberOfPoints='500'>
<Points>
<DataArray NumberOfComponents='3' type='Float32' Name='Position' format='ascii'>
2.014424 0.650061 0.231924
2.041913 0.322548 0.117272
0.512335 0.981781 0.220511
2.032789 0.817449 0.183718
2.006422 0.772777 0.106364
0.532145 0.186421 0.244663
2.021840 0.236634 0.075397
2.017995 0.818960 0.207017
2.017950 0.655072 0.227218
2.014456 0.778828 0.229164
2.000547 0.222329 0.034662
0.578167 0.006360 0.058254
2.017588 0.584494 0.223786
1.975053 0.235278 0.235785
2.020090 0.731064 0.214867
2.029884 0.896507 0.149988
2.019396 0.268186 0.204956
2.024177 0.929727 0.162309
2.005561 0.815987 0.218321
2.028493 0.103892 0.112536
2.053310 0.240382 0.149626
1.035323 0.063925 0.228942
2.013011 0.752185 0.079681
0.802350 0.995956 0.153008
2.010016 0.889759 0.129730
2.047684 0.745451 0.119795
2.009667 0.499886 0.099563
2.034071 0.303870 0.160488
0.122926 0.853044 0.000970
2.006176 0.945870 0.220308
2.049422 0.718082 0.151819
1.453182 0.165988 0.242695
2.003229 0.966762 0.186246
2.022542 0.715620 0.181877
2.007435 0.963692 0.130137
2.010632 0.639137 0.200410
2.032977 0.238094 0.074622
2.000648 0.118576 0.122908
2.023587 0.621514 0.041745
2.021349 0.083507 0.064647
2.001051 0.071703 0.216721
1.782629 0.244300 0.240371
1.123676 0.148764 0.010490
1.706369 0.030924 0.031520
2.007880 0.710244 0.115067
0.863790 0.551590 0.011628
0.028655 0.131326 0.019867
2.001995 0.747523 0.166309
2.009973 0.935019 0.106858
2.032963 0.684623 0.203324
2.034140 0.855777 0.176953
0.025279 0.664528 0.226094
2.008327 0.295468 0.130869
0.202652 0.849090 0.002941
1.866562 0.443824 0.230770
2.014178 0.336587 0.209485
2.002913 0.866697 0.231710
2.021289 0.403139 0.038827
2.020040 0.916381 0.117455
2.011438 0.042650 0.166426
2.009763 0.231899 0.027127
2.033928 0.852710 0.179680
0.568990 0.993788 0.194193
2.009942 0.676050 0.191148
2.019976 0.708230 0.042371
0.358190 0.725838 0.002985
2.005428 0.343931 0.028379
2.031539 0.915199 0.125560
2.031289 0.095241 0.207983
2.018562 0.097872 0.154440
2.032726 0.151930 0.157049
2.017426 0.426046 0.024972
2.008613 0.966694 0.115869
2.012379 0.857800 0.088540
0.038982 0.651788 0.241141
2.000227 0.618106 0.031021
2.006516 0.709664 0.056035
2.006612 0.733044 0.069206
2.032027 0.708061 0.156368
2.047422 0.659033 0.158041
2.018485 0.186313 0.215307
2.008623 0.671327 0.150335
2.017950 0.932096 0.066731
2.000212 0.119345 0.120454
2.027649 0.788814 0.122788
1.707735 0.208728 0.240689
2.005830 0.971166 0.189214
2.037782 0.301018 0.135393
2.000514 0.077327 0.105807
2.037639 0.231862 0.074891
2.000130 0.616402 0.021083
2.043692 0.901627 0.126913
2.041219 0.688146 0.137356
2.000429 0.215780 0.041495
2.033186 0.327317 0.104475
0.192364 0.612383 0.250010
0.034528 0.562738 0.250112
2.044269 0.818918 0.199550
2.001223 0.848056 0.050231
2.017651 0.129320 0.202862
2.012521 0.233298 0.045845
1.012987 0.988931 0.176845
2.030091 0.839346 0.098504
2.033268 0.354557 0.077770
2.041484 0.819601 0.133527
2.016896 0.735843 0.177114
2.005133 0.350592 0.093012
2.030378 0.211665 0.125291
2.051344 0.818365 0.128576
2.023131 0.039322 0.115082
2.015030 0.096685 0.090606
2.042048 0.398850 0.188016
1.046234 0.949002 0.239774
2.022922 0.372593 0.103430
2.023228 0.730447 0.214347
2.016049 0.756633 0.040487
2.020701 0.649097 0.095229
2.010562 0.904400 0.171377
0.092920 0.990503 0.221782
2.018379 0.496429 0.082114
0.142635 0.044382 0.004076
2.005788 0.276226 0.213360
2.032231 0.932595 0.160442
2.006229 0.058657 0.123712
2.029796 0.721484 0.189331
2.023981 0.900346 0.021847
2.022575 0.188149 0.135854
2.017201 0.681083 0.191017
2.023163 0.803616 0.100864
2.016357 0.106732 0.037931
1.999231 0.145322 0.222994
0.988715 0.531879 0.221446
2.015481 0.887887 0.167531
2.012309 0.059204 0.149143
2.024290 0.352007 0.073397
2.044852 0.258797 0.047845
2.004841 0.367351 0.200467
2.018896 0.681016 0.127061
1.460664 0.993267 0.100357
0.993681 0.398345 0.235236
2.018782 0.639498 0.119193
2.033252 0.732225 0.044826
2.006809 0.305431 0.041686
2.020581 0.271387 0.143559
2.029636 0.772421 0.161292
2.007196 0.972681 0.192314
1.648465 0.007474 0.101447
2.030579 0.775512 0.178289
2.041007 0.276005 0.046258
2.000271 0.289912 0.039032
2.030297 0.105648 0.171593
2.008805 0.883220 0.211431
2.007401 0.237211 0.132114
2.043957 0.792899 0.145899
2.005593 0.960484 0.087862
2.000102 0.961836 0.173119
2.008527 0.036744 0.162530
2.029679 0.371865 0.030569
0.031401 0.565873 0.250052
2.012523 0.592255 0.227791
2.031014 0.717976 0.184907
2.008829 0.958193 0.179470
2.015580 0.844944 0.092940
2.035106 0.799893 0.114166
1.994386 0.131004 0.222356
2.022126 0.726487 0.178634
2.027879 0.840318 0.184213
2.017479 0.630500 0.093234
2.004728 0.045776 0.165312
1.792987 0.030010 0.167813
0.038281 0.987398 0.129409
2.017105 0.149523 0.065801
2.002765 0.755692 0.135449
2.009781 0.723187 0.218147
2.024452 0.367358 0.155246
2.029788 0.686933 0.179488
0.136297 0.988008 0.007197
2.043170 0.614473 0.123196
2.022747 0.721939 0.186483
2.054804 0.758295 0.109029
2.041637 0.681193 0.088195
2.000301 0.875927 0.042103
2.000926 0.300494 0.207650
2.002114 0.947795 0.174869
1.191673 0.009774 0.079741
2.026112 0.916278 0.087320
2.030630 0.922772 0.068881
0.038035 0.988912 0.137870
2.043955 0.337547 0.127159
1.998832 0.809121 0.243959
2.014167 0.830135 0.092786
2.021179 0.297030 0.060840
2.006074 0.222603 0.150129
2.012553 0.718654 0.076826
0.374629 0.879864 0.246361
2.014067 0.221852 0.075742
2.022074 0.220839 0.125137
2.000111 0.045616 0.156602
2.024098 0.190148 0.166427
2.000155 0.115994 0.036692
2.031926 0.750208 0.100893
2.032816 0.780082 0.070591
1.998803 0.902111 0.018127
2.036882 0.229357 0.050515
1.989353 0.025378 0.189314
2.032852 0.230892 0.118425
1.730649 0.128713 0.226516
2.019598 0.843053 0.176573
2.016902 0.101517 0.145640
0.973681 0.340885 0.242045
2.045287 0.712677 0.129932
2.035427 0.694947 0.126864
2.048916 0.864810 0.125488
2.001647 0.913888 0.124021
2.014059 0.089480 0.039694
2.035264 0.224157 0.103852
2.025508 0.345656 0.154944
2.035546 0.726023 0.059531
2.008734 0.276993 0.174787
0.446025 0.024174 0.028019
2.014314 0.785718 0.158959
2.022817 0.412694 0.057546
2.015897 0.124400 0.020784
2.027677 0.625261 0.106097
2.002812 0.754347 0.144586
2.000397 0.043009 0.128105
2.012800 0.666294 0.074063
1.532729 0.698148 0.010863
2.001764 0.020120 0.097058
2.001944 0.360681 0.203661
2.009621 0.190728 0.054982
0.172991 0.699727 0.240316
1.835016 0.640405 0.013228
2.037639 0.183166 0.137945
2.002865 0.054265 0.168639
1.193463 0.984963 0.217243
2.030415 0.333994 0.097299
2.005081 0.638313 0.035432
2.021489 0.647323 0.134533
2.010209 0.935672 0.205949
2.028538 0.101289 0.015124
2.012652 0.670691 0.207114
2.017824 0.348008 0.065318
2.038313 0.328636 0.190803
2.017192 0.772864 0.111412
2.018344 0.499011 0.061652
2.022265 0.669826 0.040038
1.546032 0.988044 0.161259
2.002798 0.106988 0.215250
2.019511 0.192326 0.020119
2.022459 0.678012 0.204441
2.005690 0.712882 0.141472
1.985867 0.975467 0.145082
2.000333 0.953181 0.117134
2.019636 0.910267 0.135929
2.003939 0.385042 0.230451
2.006319 0.572720 0.097924
0.037231 0.996597 0.053469
0.733098 0.820379 0.006174
2.014893 0.667149 0.211037
2.007652 0.682386 0.138880
1.396979 0.805896 0.238159
2.005989 0.126293 0.114610
2.008474 0.747795 0.153841
2.001298 0.857592 0.150809
2.025124 0.119820 0.148109
1.733758 0.341340 0.012195
2.039586 0.412706 0.106171
2.024485 0.316321 0.073033
1.998657 0.798781 0.233531
2.013345 0.882962 0.090390
0.531165 0.184909 0.016321
2.015784 0.275097 0.093220
2.010821 0.308547 0.173000
2.033909 0.289244 0.112282
2.042875 0.331086 0.077792
2.039336 0.339690 0.068817
2.034917 0.195737 0.108191
2.013953 0.922460 0.103780
2.027577 0.749487 0.077519
2.000638 0.887062 0.082849
2.043238 0.860607 0.086299
2.022557 0.107515 0.035134
2.012521 0.933139 0.107317
2.021264 0.348509 0.201991
2.015875 0.174592 0.025673
2.036560 0.107947 0.066608
0.210747 0.963808 0.241139
2.018576 0.840891 0.076544
2.005662 0.767514 0.027929
2.025381 0.883073 0.216368
2.003428 0.277166 0.164066
2.040073 0.728954 0.132857
2.008789 0.441814 0.219517
2.012630 0.068076 0.032742
2.013732 0.699957 0.037390
2.038919 0.091718 0.151174
2.007386 0.174686 0.037130
2.010286 0.565693 0.109033
1.587941 0.395531 0.229552
2.008896 0.535737 0.180788
2.010992 0.147421 0.096275
2.023444 0.832276 0.209149
2.038118 0.748146 0.141266
2.007447 0.660923 0.215475
2.007343 0.252245 0.045028
2.038461 0.336184 0.102265
2.032140 0.948573 0.123652
2.014877 0.125737 0.026824
2.013046 0.936125 0.068833
2.036578 0.240857 0.056613
1.368898 0.247165 0.014050
2.019009 0.931509 0.079621
2.026656 0.128085 0.135971
2.011742 0.078111 0.152927
0.835080 0.520742 0.235549
2.005825 0.296214 0.042500
2.015293 0.293635 0.234849
2.020640 0.930446 0.117839
2.012230 0.680055 0.167305
2.024435 0.735181 0.039485
2.025570 0.769084 0.186028
2.012501 0.643426 0.035387
1.049898 0.997088 0.199762
0.039277 0.426713 0.016086
2.002534 0.716035 0.146029
0.499037 0.369360 0.243049
2.016975 0.055602 0.035681
2.028122 0.221336 0.119898
2.000288 0.313538 0.179206
0.006801 0.516545 0.237888
2.000605 0.399895 0.230714
1.958175 0.034666 0.044549
2.023364 0.091646 0.073414
0.007811 0.605221 -0.000325
2.022095 0.088833 0.073625
2.023175 0.607116 0.038665
2.028521 0.663280 0.028983
0.010807 0.276814 0.232088
2.048770 0.749451 0.090866
2.029164 0.787634 0.187305
2.009423 0.578671 0.035858
2.001214 0.102727 0.166548
1.999790 0.965910 0.068405
2.015104 0.119351 0.025199
2.016937 0.339622 0.074967
0.018953 0.890552 0.250145
2.000588 0.799573 0.125313
2.018788 0.585346 0.066433
2.010143 0.602290 0.201903
2.028930 0.271324 0.174884
2.010875 0.104483 0.044686
0.506484 0.983086 0.218499
2.026492 0.348990 0.140628
2.001652 0.908618 0.225272
2.033815 0.595950 0.076129
0.341806 0.009363 0.210063
2.031101 0.930411 0.137363
2.004660 0.865858 0.205160
2.002627 0.901958 0.043426
2.025588 0.792722 0.125310
2.036936 0.079405 0.138733
2.016966 0.961414 0.205477
2.006244 0.790524 0.087015
1.141448 0.009749 0.038139
1.393741 0.010537 0.165454
2.027840 0.464537 0.062542
0.016832 0.747018 0.010981
2.007610 0.172173 0.078813
2.007702 0.234239 0.216311
2.016672 0.497147 0.064638
1.274608 0.746591 0.231607
2.020352 0.301361 0.168629
2.011723 0.880291 0.032407
2.054257 0.245705 0.112442
1.333324 0.481094 0.106712
2.005327 0.901170 0.181384
2.004935 0.129279 0.216811
2.014286 0.350295 0.187820
2.016464 0.939830 0.139259
2.040402 0.096788 0.101012
2.001294 0.107314 0.184666
1.776656 0.033647 0.213499
2.038295 0.102904 0.177095
2.025195 0.408903 0.144709
2.005595 0.961732 0.088029
2.020001 0.799353 0.160508
2.012249 0.715509 0.135389
1.478147 0.995141 0.088899
0.034259 -0.000089 0.183998
2.032238 0.901429 0.052711
0.957796 0.406971 0.008006
2.047931 0.313367 0.104281
2.023425 0.371297 0.189176
2.033696 0.125638 0.135117
1.999641 0.671142 0.030013
2.009439 0.111121 0.210674
0.235646 0.985234 0.021286
2.001362 0.282336 0.081177
2.003080 0.388220 0.220668
2.016776 0.724579 0.168284
0.139919 0.016472 0.088138
2.007751 0.161367 0.097244
0.722195 0.961826 0.016092
2.021828 0.925834 0.076102
2.033920 0.088868 0.213205
2.012108 0.659642 0.207532
2.023007 0.116935 0.149028
2.001221 0.669073 0.192203
2.049318 0.245117 0.121517
2.007857 0.404492 0.211926
2.014259 0.206345 0.053412
2.029388 0.052975 0.176435
0.876480 0.990857 0.170172
2.017891 0.273142 0.089601
2.005868 0.074799 0.030089
2.001818 0.350240 0.144337
2.018226 0.826991 0.177203
2.026136 0.500106 0.182160
2.040798 0.271093 0.087862
2.039047 0.789668 0.048091
1.977490 0.094387 0.019812
2.012442 0.909298 0.219051
2.010548 0.695931 0.089083
2.015575 0.353923 0.199898
2.014640 0.582777 0.057398
2.024173 0.282589 0.075697
2.017580 0.697172 0.227207
2.025903 0.091580 0.162508
2.039833 0.740614 0.110457
2.045441 0.386358 0.068500
2.002946 0.033735 0.194066
2.035768 0.751377 0.149175
2.021132 0.167951 0.105210
2.030107 0.426089 0.134212
1.655718 0.600463 0.015649
2.017631 0.345764 0.201357
2.033975 0.332578 0.095046
2.024310 0.858399 0.143123
2.020025 0.364707 0.021131
2.036353 0.070023 0.119429
2.006043 0.826376 0.044697
2.033033 0.715423 0.127692
2.040083 0.091923 0.085418
2.023243 0.436303 0.110260
2.038732 0.267869 0.046259
2.022422 0.186151 0.198259
2.029531 0.103716 0.205389
2.015052 0.920555 0.112129
0.522709 0.623227 0.004105
0.418360 0.685350 0.247578
2.017961 0.096528 0.184175
2.003892 0.262647 0.030832
2.024277 0.380779 0.080066
1.439251 0.812172 0.011330
2.000152 0.715168 0.043558
2.015801 0.293648 0.220570
2.019767 0.325567 0.131726
2.010451 0.114133 0.153634
2.014853 0.372002 0.213192
1.282652 0.014193 0.035517
2.018938 0.868010 0.039757
2.008738 0.657800 0.178482
0.041261 0.573272 0.013473
1.963569 0.560047 0.221831
2.000237 0.042496 0.160838
2.006973 0.066181 0.216254
2.024197 0.296343 0.159639
2.012589 0.705302 0.020757
2.003979 0.189402 0.181230
0.047646 0.852974 -0.000133
2.007483 0.863402 0.222088
0.695362 0.956612 0.009653
0.159205 0.002533 0.209736
2.007821 0.839730 0.099613
2.028238 0.101937 0.203735
0.030024 0.373575 0.241656
2.006695 0.889089 0.035418
2.033046 0.667468 0.200239
2.039662 0.499944 0.126204
0.129126 0.940940 0.001199
2.017117 0.290534 0.208101
0.018633 0.388976 0.247717
2.042207 0.866436 0.076275
2.017899 0.953335 0.049227
2.005977 0.763890 0.090744
2.045911 0.498434 0.063563
2.015755 0.956220 0.051535
2.019777 0.409893 0.057595
2.007231 0.605300 0.202884
2.003610 0.932416 0.091151
2.013677 0.949706 0.108499
1.853451 0.979334 0.074518
1.636271 0.015425 0.054435
2.000136 0.033517 0.176149
2.019279 0.075744 0.157400
2.007864 0.166258 0.184835
2.007855 0.119610 0.200900
2.033492 0.829768 0.188287
2.009141 0.738372 0.125480
</DataArray>
</Points>
<PointData>
<DataArray NumberOfComponents='1' type='Int32' Name='ParticleType' format='ascii'>
1
1
1
1
1
1
1
1
1
1
1
1
1
1
1
1
1
1
1
1
1
1
1
1
1
1
1
1
1
1
1
1
1
1
1
1
1
1
1
1
1
1
1
1
1
1
1
1
1
1
1
1
1
1
1
1
1
1
1
1
1
1
1
1
1
1
1
1
1
1
1
1
1
1
1
1
1
1
1
1
1
1
1
1
1
1
1
1
1
1
1
1
1
1
1
1
1
1
1
1
1
1
1
1
1
1
1
1
1
1
1
1
1
1
1
1
1
1
1
1
1
1
1
1
1
1
1
1
1
1
1
1
1
1
1
1
1
1
1
1
1
1
1
1
1
1
1
1
1
1
1
1
1
1
1
1
1
1
1
1
1
1
1
1
1
1
1
1
1
1
1
1
1
1
1
1
1
1
1
1
1
1
1
1
1
1
1
1
1
1
1
1
1
1
1
1
1
1
1
1
1
1
1
1
1
1
1
1
1
1
1
1
1
1
1
1
1
1
1
1
1
1
1
1
1
1
1
1
1
1
1
1
1
1
1
1
1
1
1
1
1
1
1
1
1
1
1
1
1
1
1
1
1
1
1
1
1
1
1
1
1
1
1
1
1
1
1
1
1
1
1
1
1
1
1
1
1
1
1
1
1
1
1
1
1
1
1
1
1
1
1
1
1
1
1
1
1
1
1
1
1
1
1
1
1
1
1
1
1
1
1
1
1
1
1
1
1
1
1
1
1
1
1
1
1
1
1
1
1
1
1
1
1
1
1
1
1
1
1
1
1
1
1
1
1
1
1
1
1
1
1
1
1
1
1
1
1
1
1
1
1
1
1
1
1
1
1
1
1
1
1
1
1
1
1
1
1
1
1
1
1
1
1
1
1
1
1
1
1
1
1
1
1
1
1
1
1
1
1
1
1
1
1
1
1
1
1
1
1
1
1
1
1
1
1
1
1
1
1
1
1
1
1
1
1
1
1
1
1
1
1
1
1
1
1
1
1
1
1
1
1
1
1
1
1
1
1
1
1
1
1
1
1
1
1
1
1
1
1
1
1
1
1
1
1
1
1
1
1
1
1
1
1
1
1
1
1
1
1
1
1
1
1
1
1
1
1
1
1
1
1
1
1
1
1
1
1
1
1
1
</DataArray>
<DataArray NumberOfComponents='1' type='Int32' Name='ParticleID' format='ascii'>
0
1
2
3
4
5
6
7
8
9
10
11
12
13
14
15
16
17
18
19
20
21
22
23
24
25
26
27
28
29
30
31
32
33
34
35
36
37
38
39
40
41
42
43
44
45
46
47
48
49
50
51
52
53
54
55
56
57
58
59
60
61
62
63
64
65
66
67
68
69
70
71
72
73
74
75
76
77
78
79
80
81
82
83
84
85
86
87
88
89
90
91
92
93
94
95
96
97
98
99
100
101
102
103
104
105
106
107
108
109
110
111
112
113
114
115
116
117
118
119
120
121
122
123
124
125
126
127
128
129
130
131
132
133
134
135
136
137
138
139
140
141
142
143
144
145
146
147
148
149
150
151
152
153
154
155
156
157
158
159
160
161
162
163
164
165
166
167
168
169
170
171
172
173
174
175
176
177
178
179
180
181
182
183
184
185
186
187
188
189
190
191
192
193
194
195
196
197
198
199
200
201
202
203
204
205
206
207
208
209
210
211
212
213
214
215
216
217
218
219
220
221
222
223
224
225
226
227
228
229
230
231
232
233
234
235
236
237
238
239
240
241
242
243
244
245
246
247
248
249
250
251
252
253
254
255
256
257
258
259
260
261
262
263
264
265
266
267
268
269
270
271
272
273
274
275
276
277
278
279
280
281
282
283
284
285
286
287
288
289
290
291
292
293
294
295
296
297
298
299
300
301
302
303
304
305
306
307
308
309
310
311
312
313
314
315
316
317
318
319
320
321
322
323
324
325
326
327
328
329
330
331
332
333
334
335
336
337
338
339
340
341
342
343
344
345
346
347
348
349
350
351
352
353
354
355
356
357
358
359
360
361
362
363
364
365
366
367
368
369
370
371
372
373
374
375
376
377
378
379
380
381
382
383
384
385
386
387
388
389
390
391
392
393
394
395
396
397
398
399
400
401
402
403
404
405
406
407
408
409
410
411
412
413
414
415
416
417
418
419
420
421
422
423
424
425
426
427
428
429
430
431
432
433
434
435
436
437
438
439
440
441
442
443
444
445
446
447
448
449
450
451
452
453
454
455
456
457
458
459
460
461
462
463
464
465
466
467
468
469
470
471
472
473
474
475
476
477
478
479
480
481
482
483
484
485
486
487
488
489
490
491
492
493
494
495
496
497
498
499
</DataArray>
<DataArray NumberOfComponents='1' type='Int8' Name='IsActive' format='ascii'>
0
0
1
0
0
1
0
0
0
0
0
1
0
1
0
0
0
0
0
0
0
1
0
1
0
0
0
0
1
0
0
1
0
0
0
0
0
0
0
0
0
1
1
1
0
1
1
0
0
0
0
1
0
1
1
0
0
0
0
0
0
0
1
0
0
1
0
0
0
0
0
0
0
0
1
0
0
0
0
0
0
0
0
0
0
1
0
0
0
0
0
0
0
0
0
0
0
0
0
0
0
1
0
0
0
0
0
0
0
0
0
0
1
0
0
0
0
0
1
0
1
0
0
0
0
0
0
0
0
0
1
1
0
0
0
0
0
0
1
1
0
0
0
0
0
0
1
0
0
0
0
0
0
0
0
0
0
0
0
0
0
0
0
0
1
0
0
0
0
1
1
0
0
0
0
0
1
0
0
0
0
0
0
0
1
0
0
1
0
1
0
0
0
0
1
0
0
0
0
0
0
0
1
0
1
0
1
0
0
1
0
0
0
0
0
0
0
0
0
1
0
0
0
0
0
0
0
1
0
0
0
1
1
0
0
1
0
0
0
0
0
0
0
0
0
0
0
1
0
0
0
0
1
0
0
0
0
1
1
0
0
1
0
0
0
0
1
0
0
1
0
1
0
0
0
0
0
0
0
0
0
0
0
0
0
0
0
1
0
0
0
0
0
0
0
0
0
0
0
1
0
0
0
0
0
0
0
0
0
0
0
1
0
0
0
1
0
0
0
0
0
0
0
1
1
0
1
0
0
0
1
0
1
0
0
0
0
0
1
0
0
0
0
1
0
0
0
0
0
0
0
0
1
0
0
0
1
0
0
0
0
0
0
0
1
1
0
1
0
0
0
1
0
0
0
1
0
0
0
0
0
0
1
0
0
0
0
0
1
0
0
1
0
0
0
1
0
1
0
0
0
1
0
1
0
0
0
0
0
0
0
0
0
1
0
0
0
0
0
0
0
1
0
0
0
0
0
0
0
0
0
0
0
0
0
1
0
0
0
0
0
0
0
0
0
0
0
0
0
1
1
0
0
0
1
0
0
0
0
0
1
0
0
1
1
0
0
0
0
0
0
0
1
1
0
0
1
0
0
0
1
0
1
0
0
0
0
0
0
0
0
0
1
1
0
0
0
0
0
0
</DataArray>
<DataArray NumberOfComponents='1' type='Int32' Name='ParticleTetID' format='ascii'>
-81615
-50400
78338
-69862
-102510
96660
-69112
-82730
-81615
-89990
-90622
94655
-78226
86583
-82225
-93293
-91090
-74058
-82730
-98831
-12127
75214
-98411
78845
-93293
-102840
-53934
-91191
96167
-94881
-34180
14990
-98723
-39168
-100141
-81615
-69112
-42296
-100758
-96731
-98418
94164
84974
84580
-90119
76537
94294
-93119
-79211
-82225
-90337
80251
-25302
90455
77658
-96944
-100875
-81404
-27681
-88996
-90622
-90337
94568
-57434
-90680
71142
-90160
-27681
-44138
-104925
-80727
-81404
-90339
-96019
80251
-100758
-75610
-98411
-34180
-57434
-93827
-57434
-89958
-42296
-102510
40942
-98723
-50400
-98306
-69112
-100758
-93293
-104802
-99907
-83399
-79063
-99904
-90337
-79597
-82515
-90622
97508
-96019
-58762
-86274
-93119
-58762
-98765
-86274
-97395
-96731
-44272
97826
-24526
-82225
-92602
-87306
-96325
101369
-53934
99302
-91090
-74058
-98831
-39168
-105531
-98765
-39168
-17626
-96893
99790
46009
-96325
-104925
-58762
-64130
-96944
-104802
48413
43617
-95998
-92602
-88016
-12127
-70156
-98723
50556
-70156
-92373
-88016
-44138
-105710
-83215
-102510
-90339
-101175
-88996
-90160
-99904
-78226
-39168
-98723
-96019
-17626
85664
-39168
-90337
-74393
-88996
63330
97137
-87514
-102840
-82225
-93819
-39168
101296
-96354
-39168
-102840
-91248
-105531
-91090
-74058
82639
-89958
-89958
97137
-96849
100584
-96019
-92373
-85990
-91248
37791
-69112
-83215
-88996
-85990
-96893
-102840
-83820
101077
-64130
94415
-83215
56730
-90337
-98831
91785
-34180
-104802
-98210
-27681
-96893
-69112
-98308
-91248
-61396
43602
-70156
-46315
-96893
-74393
-102840
-100053
-82524
16759
-97395
-96944
-70433
33603
52058
-99021
-104925
98499
-83399
-90231
-104802
-94881
-96893
-81615
-58762
-98308
-102510
-53934
-90231
46058
-82515
-70433
-82225
-34180
94521
-90339
-27681
-100865
-84540
99980
105121
-81615
-104802
70908
-42296
-93119
-98210
-42296
69300
-90131
-83399
100584
-96019
93990
-94130
-91191
-25302
-83399
-58762
-99021
-79211
-98411
-48492
-96019
-96893
-79211
-96944
-70433
-100353
96955
-96019
-92602
-105710
-61396
-34180
-101274
-98269
-90680
-98831
-70433
-100422
64270
-55969
-24687
-82730
-102840
-81615
-90622
-83399
-27681
-96893
-89958
-64130
85240
-89958
-42296
-104925
57786
-88016
-91090
-27681
-57434
-92602
-94146
-90231
89592
74099
-34180
61214
-42031
-83215
-91191
100092
-100865
102968
-96731
-101355
-96731
-104379
-90231
98826
-98411
-94146
-104379
-44138
101115
-96893
-58762
-71594
-17626
-25092
-78226
-61396
-96893
78338
-96849
-100397
-25092
84286
-27681
-99052
-105531
-17626
-98831
-43778
-83820
89380
105961
-42264
100743
-56272
-82325
-53934
20298
-91191
-105531
-83215
54103
-96325
-82515
-98308
-43214
-98306
-44138
41199
-44138
-19405
-90339
-70156
-34180
76389
-101044
-48492
44756
-94130
-98308
-42296
101125
-82515
78521
-94130
-100865
-93119
97937
-24687
33033
-89958
-44138
-81615
-42296
-42146
-83215
-89384
-70433
-104925
96718
-94130
-98269
-99096
-69862
-44201
-94130
-99911
97066
-100397
-91248
-96944
-25092
-92373
-82225
-104925
-102840
-24526
-94487
-102840
-24687
-19405
70540
-96944
-83399
-98210
-90160
-98831
-79597
-34180
-96731
-69914
-92373
-99721
-44138
-27681
60229
89283
-44138
-101289
-24526
99450
-90680
-91090
-50400
-42296
-96944
30418
-105531
-42146
88021
104973
-88996
-98418
-95447
-90680
-99721
-100561
-105710
33033
82225
-96019
-44138
101063
-105531
-42146
-47002
100848
-91090
101063
-96019
-57590
-98411
-53934
-57590
-46315
-78226
-79211
-79211
81492
66947
-100059
-104925
-99721
-44138
-90337
-102840
</DataArray>
<DataArray NumberOfComponents='3' type='Float32' Name='vels' format='ascii'>
13.652887 -0.371676 2.610290
22.746117 0.571945 -0.290697
0.057961 -0.000004 0.005045
20.081773 -0.217840 -0.277921
23.484112 -0.510887 0.083072
1.936343 -0.096612 -0.000622
20.333378 0.277334 -0.621174
12.783111 0.221707 0.073535
12.723614 -0.329565 2.025000
7.808674 0.080874 0.173126
0.217718 0.013813 0.058638
2.544880 -0.022602 -0.022877
10.066190 -0.178202 1.369105
1.222187 0.020799 0.024458
13.642843 -0.263199 -0.225210
20.644419 -0.244898 0.011251
14.087736 0.281257 1.252631
14.293141 1.904616 0.878634
2.882659 0.105804 0.055236
19.044396 -1.244907 -0.238396
21.835456 0.067503 1.640637
9.642983 -0.799032 0.012167
20.051412 -0.328575 -0.076616
1.391091 0.007315 0.034669
18.297037 -0.214221 0.115799
22.591256 -0.226395 0.244628
21.311839 -0.134131 -0.004464
21.418610 0.522880 0.667956
0.410707 0.005917 0.000411
3.140413 0.536333 0.169702
22.058982 -0.221339 0.905368
5.953937 0.947822 -0.002612
2.246668 0.163870 0.416111
19.420937 -0.419907 0.689956
9.525294 1.051627 0.162017
9.873437 -0.276749 0.223623
19.690416 0.183231 -1.354405
17.262796 -0.581290 -0.236368
13.020581 -0.450925 -1.719911
13.718675 -1.653544 -1.157650
1.696909 -0.166254 0.000248
3.510287 0.651104 -0.000092
8.486667 -0.618306 -0.002617
6.030016 0.108393 0.065277
23.253517 -0.506630 -0.243077
2.091218 0.632224 0.002492
-0.046934 0.006611 -0.002844
21.234953 -0.478901 -0.021576
16.783738 0.725048 0.022270
15.336051 -0.375124 2.450828
15.641460 0.592641 2.478244
-0.146663 -0.022427 0.003021
23.583462 0.705706 0.031841
0.995741 0.012020 -0.001198
5.860500 0.300800 -0.015038
12.898903 0.342379 1.238865
4.989979 0.532961 0.576616
13.280735 0.278610 0.164190
16.294222 1.334800 -0.294998
10.266128 -1.216054 0.712383
5.808161 -0.012437 -0.307565
15.971599 0.661878 2.362355
1.731342 0.004110 -0.006799
16.469972 -0.440812 0.460427
8.803361 -0.053175 -1.230980
0.965984 0.018749 -0.000114
10.740587 0.297700 -1.133387
16.358776 2.099030 -0.512324
13.698757 -1.440865 2.243215
12.106804 0.099396 -0.173926
20.829917 -0.376475 0.351593
7.620567 0.219863 -0.428604
3.920957 0.036668 -0.138405
21.624399 0.251894 -0.102345
0.050285 0.003676 0.003378
2.991779 0.001495 -0.163582
18.270654 -0.489875 0.186874
16.029687 -0.488661 0.199500
22.453575 -0.519201 0.546982
20.858756 -0.561026 1.745228
8.110957 -0.392896 1.428217
22.318605 -0.637696 0.060034
12.451290 1.606906 -1.239628
17.872999 -0.508012 -0.210598
21.544261 -0.576351 -0.237666
3.695297 0.941903 0.000547
3.241783 0.291523 0.559259
22.850020 0.504740 0.291769
16.743318 -0.167094 -0.066923
20.405083 0.175823 -1.416689
6.989420 -0.026652 -0.545637
18.397170 2.312845 0.926571
22.928140 -0.721532 0.020940
1.092060 -0.057378 -0.099089
21.674624 0.629290 -1.020716
0.117633 0.000420 0.000014
-0.227464 0.036754 0.002049
18.277976 1.459873 2.053854
15.193783 -0.200755 0.411678
8.382616 -1.056661 1.118900
9.911597 0.030293 -0.531683
4.778309 0.037580 0.037796
16.604183 0.954922 -1.554912
16.518350 0.455337 -2.328386
22.200797 0.725471 -0.532589
19.328759 -0.349707 0.354440
19.388330 0.531497 -1.176200
23.505890 -0.017541 0.011079
21.587448 0.974728 -0.641169
9.527705 -1.530749 -0.112747
16.482712 -1.531327 -0.673981
20.251569 0.364379 1.295825
5.925885 0.292635 -0.031071
22.036278 0.624905 -0.469285
14.124127 -0.284270 -0.217126
10.498283 -0.075992 -0.761585
21.786999 -0.601339 -0.143358
14.298232 0.925327 0.629781
0.031284 0.000206 0.001576
17.640730 0.123446 0.266473
0.024243 0.000108 -0.000355
6.375299 0.134909 0.583683
14.099799 2.576252 1.169191
13.357897 -0.648771 -0.039844
17.437643 -0.326126 1.677305
10.328157 1.287363 -1.885269
23.130137 -0.019389 0.136113
16.798710 -0.409249 0.846982
21.975496 -0.398811 0.347033
11.426230 -1.001875 -1.211797
-0.015230 -0.068989 0.005591
1.371048 0.209199 0.098717
17.775444 0.811653 0.366037
14.614608 -2.401172 0.802102
16.323602 0.461840 -1.527500
20.101702 0.219511 -1.888051
10.340887 0.260235 0.538024
23.078656 -0.988561 -0.027553
4.352220 -0.049340 0.012426
0.117069 -0.889550 0.039244
22.910553 -0.665074 -0.024346
15.478941 0.434950 -2.683764
3.843808 0.025786 -0.011749
23.086697 0.462772 0.127130
20.097993 -0.001831 0.998274
3.477280 0.287267 0.546009
3.226012 0.045571 -0.016142
21.604291 0.016050 0.594368
20.440455 0.307652 -1.507826
3.309534 0.025848 -0.069147
16.746200 -1.534288 1.226030
10.253146 0.947459 1.119102
23.785807 0.531745 -0.031865
21.848852 0.420922 0.793156
8.106412 0.756462 -0.424418
0.108428 0.014069 -0.018445
3.708863 -0.290485 0.192581
12.836041 0.386901 -2.273542
-0.209238 0.019446 0.003920
10.143596 -0.200472 1.388218
17.330247 -0.352344 1.789258
6.224068 1.093664 0.955926
19.581049 0.422816 -0.371368
23.074533 -0.332614 -0.039117
0.047637 0.023842 -0.007790
16.564731 -0.331065 1.203524
19.095386 0.410807 1.106184
21.597133 -0.714607 0.164443
3.339751 0.116415 -0.031917
7.654215 0.180425 -0.105053
0.004473 -0.004294 0.002596
18.889380 -0.021748 0.028150
23.744358 -0.623742 0.078356
6.083785 -0.114745 0.693848
21.550093 0.597724 0.177560
19.931805 -0.620684 -0.104144
0.638595 -0.002573 0.007396
22.186483 -0.580909 0.085191
18.532700 -0.364004 0.898198
22.731125 -0.410106 -0.267865
16.903104 -0.287756 -3.000994
2.618152 0.214458 0.047809
14.810948 0.363075 0.196271
10.891050 0.859468 0.466115
5.416835 -0.006816 0.037211
15.925088 1.660978 -1.064572
13.425174 2.439846 -1.661108
-0.067535 -0.000269 -0.000609
22.474392 0.693944 0.051149
2.808403 0.032177 -0.100505
16.990761 0.499263 -0.526326
17.556272 0.387056 -1.088772
22.424382 0.267650 -0.125181
19.438241 -0.645570 0.307630
1.167474 0.012539 -0.000803
19.790404 0.145941 -0.245545
23.805036 0.246133 -0.090822
5.802042 0.065425 -0.022372
17.974424 -0.188307 1.097113
11.220117 -0.667190 -0.338685
22.916248 -0.253452 -0.514480
18.818351 0.349067 -1.391396
0.269480 0.063645 -0.000995
15.899244 0.166904 -2.510908
1.780855 -0.051758 0.272436
23.480659 0.156312 -0.174877
8.896284 1.530669 -0.008867
18.643998 0.568643 0.689326
18.384430 -0.878138 0.303210
1.129070 -2.022740 0.015524
23.583081 -0.560089 0.024302
23.161558 -0.767744 -0.045548
20.291565 1.561776 -0.694303
16.401910 -0.321120 -0.053734
10.492033 -1.280470 -1.330174
21.410000 0.626257 0.310330
18.442322 0.652253 -0.220620
17.690202 -0.279277 -2.290119
18.769647 0.377517 0.667154
0.970684 -0.004660 -0.001905
17.750980 -0.020871 0.508239
17.540848 0.458101 -1.060460
8.106153 -1.043966 -1.428472
20.417662 -0.645471 0.231195
23.602854 -0.615112 0.038929
12.160696 -1.012091 0.189499
18.576584 -0.501876 -0.358508
3.213728 -3.375013 0.015295
2.868667 -0.053661 -0.100136
13.702585 0.396953 0.289287
6.917325 -0.024386 0.013341
3.354384 -0.011882 0.009584
4.271789 -0.533482 0.011079
21.328316 0.562810 0.238438
12.057405 0.044548 -0.097366
5.281557 -0.005796 -0.023314
22.195289 0.732663 -0.247530
2.252395 -0.033993 0.023985
22.344953 -0.609651 0.782143
8.203682 -0.035308 -0.135028
11.916811 -1.628890 -2.231869
15.872573 -0.624415 -0.376809
21.407858 0.824238 0.337188
17.297617 0.488402 2.433505
23.606339 -0.372745 -0.031862
16.400747 -0.034860 -1.000534
13.166489 -0.210343 -1.750043
5.299630 -0.066131 0.085955
9.399261 -0.801023 0.807560
10.535891 -0.198506 -0.788298
14.328609 -0.354769 1.438157
21.838368 -0.661170 -0.191753
-0.058602 -0.001769 0.011760
1.967034 -0.040918 -0.033000
15.580226 -0.323972 0.093963
7.226250 0.044095 0.796561
21.053992 -0.422851 0.024730
-0.017041 0.002928 0.033783
0.861827 0.137998 0.000731
15.834580 -0.663892 -0.282635
23.244983 -0.730652 -0.131282
9.043756 -0.504981 -0.001791
20.722970 -0.207133 -0.102217
22.750940 -0.531753 0.033055
20.545453 -0.083357 -0.102342
20.285490 -0.903266 0.046184
4.036922 1.033165 -0.006252
21.801124 0.497681 -0.757091
19.879728 0.548398 -0.714806
0.019357 0.002783 0.004262
18.274489 0.518023 -0.272507
5.478361 -0.239224 0.002653
22.049778 0.519534 -0.195881
19.783170 0.573937 0.196976
23.087101 0.531150 0.110178
20.744513 0.554739 -1.416790
18.689961 0.464014 -2.153891
22.952633 -0.348073 -0.012363
15.385875 1.081334 -0.018862
20.312842 -0.228192 -0.737240
18.555870 0.457150 -0.153506
18.423548 1.307541 -2.021391
10.524621 -1.063843 -1.645949
16.597472 0.870109 0.031602
13.153952 0.251382 1.635128
15.026963 -0.710945 -2.419758
15.862789 -1.859636 -1.900831
0.019083 0.002796 -0.000012
20.159521 0.339274 -0.414015
7.726323 0.053641 -0.995650
12.441263 0.840484 0.891875
21.204620 0.562607 -0.004813