<VTKFile type='UnstructuredGrid' version='1.0' byte_order='LittleEndian' header_type='UInt64'>
<UnstructuredGrid>
<Piece NumberOfCells='500' NumberOfPoints='500'>
<Points>
<DataArray NumberOfComponents='3' type='Float32' Name='Position' format='ascii'>
1.062243 0.797123 0.227610
2.041913 0.322548 0.117272
0.244041 0.978429 0.221341
2.032789 0.817449 0.183718
2.006422 0.772777 0.106364
0.126920 0.192521 0.246529
2.021840 0.236634 0.075397
1.720698 0.840860 0.208749
1.026368 0.787031 0.224184
1.033143 0.862920 0.228640
1.193254 0.126169 0.034970
0.236593 0.007130 0.058110
0.956163 0.656904 0.219803
0.569853 0.245470 0.237590
1.332963 0.849172 0.215502
2.029884 0.896507 0.149988
1.723210 0.232693 0.204492
1.673764 0.940212 0.161260
0.831578 0.832412 0.218749
2.028493 0.103892 0.112536
2.053310 0.240382 0.149626
0.033598 0.104143 0.232440
2.013011 0.752185 0.079681
0.274420 0.991810 0.150738
2.010016 0.889759 0.129730
2.047684 0.745451 0.119795
1.188946 0.494050 0.094165
2.034071 0.303870 0.160488
0.037878 0.850294 0.003816
0.747908 0.943956 0.220573
2.049422 0.718082 0.151819
0.501291 0.307363 0.242311
0.804633 0.968419 0.185752
2.022542 0.715620 0.181877
1.251042 0.977844 0.129221
1.694707 0.688351 0.202095
2.032977 0.238094 0.074622
2.000648 0.118576 0.122908
1.474694 0.779815 0.044360
1.727133 0.073933 0.068471
0.942353 0.064356 0.215622
0.520383 0.285309 0.239648
0.309936 0.291850 0.007293
0.522364 0.038016 0.032078
2.007880 0.710244 0.115067
0.167459 0.526021 0.007989
0.029089 0.127614 0.019715
2.001995 0.747523 0.166309
1.648321 0.946710 0.106325
1.821581 0.697325 0.199152
2.034140 0.855777 0.176953
0.022403 0.667358 0.223943
2.008327 0.295468 0.130869
0.041133 0.850335 0.002395
0.860775 0.458748 0.227351
1.407782 0.185475 0.208084
0.700543 0.870457 0.230562
1.168272 0.222262 0.037105
2.020040 0.916381 0.117455
0.921245 0.035717 0.166342
1.060771 0.139699 0.027164
2.033928 0.852710 0.179680
0.195630 0.993195 0.194288
1.968847 0.677092 0.189914
1.770392 0.731536 0.044380
0.175601 0.723974 0.002819
0.974206 0.244813 0.029202
2.031539 0.915199 0.125560
1.298755 0.059966 0.205657
2.018562 0.097872 0.154440
2.032726 0.151930 0.157049
0.911688 0.404407 0.026377
1.077928 0.980492 0.114426
2.012379 0.857800 0.088540
0.041566 0.653298 0.242973
0.941292 0.698442 0.028537
1.934769 0.712021 0.055209
2.006612 0.733044 0.069206
2.032027 0.708061 0.156368
2.047422 0.659033 0.158041
0.241403 0.208053 0.213554
2.008623 0.671327 0.150335
1.644470 0.939986 0.067812
2.000212 0.119345 0.120454
2.027649 0.788814 0.122788
0.532246 0.248742 0.239585
0.728574 0.970688 0.186049
2.037782 0.301018 0.135393
2.000514 0.077327 0.105807
2.037639 0.231862 0.074891
0.851335 0.644275 0.021926
2.043692 0.901627 0.126913
2.041219 0.688146 0.137356
1.561331 0.148878 0.040095
2.033186 0.327317 0.104475
0.147788 0.611864 0.248899
0.029592 0.560199 0.248916
2.044269 0.818918 0.199550
1.749236 0.863704 0.048589
1.463581 0.082798 0.201486
1.811058 0.220730 0.046406
0.108298 0.980194 0.171373
2.030091 0.839346 0.098504
2.033268 0.354557 0.077770
2.041484 0.819601 0.133527
2.016896 0.735843 0.177114
2.005133 0.350592 0.093012
2.030378 0.211665 0.125291
2.051344 0.818365 0.128576
1.394050 0.026194 0.114711
2.015030 0.096685 0.090606
1.769163 0.377714 0.184017
0.303239 0.908834 0.241866
2.022922 0.372593 0.103430
1.346387 0.850949 0.214816
1.760893 0.777621 0.040944
2.020701 0.649097 0.095229
2.010562 0.904400 0.171377
0.035834 0.992430 0.221535
1.172003 0.499756 0.070371
0.084157 0.043401 0.005589
1.346946 0.157522 0.212558
1.682531 0.935171 0.156335
1.895706 0.059483 0.122601
1.942598 0.723447 0.185830
0.928432 0.924721 0.027643
2.022575 0.188149 0.135854
2.017201 0.681083 0.191017
2.023163 0.803616 0.100864
1.464285 0.069238 0.038590
0.987275 0.106858 0.225267
0.011456 0.504064 0.222834
2.015481 0.887887 0.167531
1.709566 0.058945 0.147427
2.024290 0.352007 0.073397
1.994915 0.258316 0.052442
1.708781 0.327335 0.201137
2.018896 0.681016 0.127061
0.496095 0.984064 0.100967
0.726900 0.490358 0.234018
2.018782 0.639498 0.119193
1.891569 0.734336 0.049403
1.724356 0.269906 0.039667
2.020581 0.271387 0.143559
2.029636 0.772421 0.161292
0.680222 0.972366 0.190521
0.548922 0.017255 0.102552
2.030579 0.775512 0.178289
1.810914 0.261321 0.048220
1.711440 0.252111 0.039713
2.030297 0.105648 0.171593
1.498864 0.921233 0.207630
2.007401 0.237211 0.132114
2.043957 0.792899 0.145899
1.044729 0.974654 0.087407
0.932079 0.971872 0.175051
0.690411 0.035630 0.161341
1.122269 0.207235 0.033008
0.035600 0.566994 0.249563
0.924768 0.657619 0.225036
2.031014 0.717976 0.184907
1.079377 0.971584 0.178418
2.015580 0.844944 0.092940
2.035106 0.799893 0.114166
1.106809 0.079578 0.225014
2.022126 0.726487 0.178634
2.027879 0.840318 0.184213
2.017479 0.630500 0.093234
1.021786 0.030752 0.168294
0.570958 0.031127 0.167697
0.038760 0.987631 0.128743
2.017105 0.149523 0.065801
2.002765 0.755692 0.135449
1.316894 0.845585 0.216885
2.024452 0.367358 0.155246
2.029788 0.686933 0.179488
0.047739 0.984804 0.006330
2.043170 0.614473 0.123196
2.022747 0.721939 0.186483
2.054804 0.758295 0.109029
2.041637 0.681193 0.088195
1.249856 0.924223 0.040927
1.599873 0.219801 0.209070
1.354610 0.965012 0.175571
0.073101 0.023644 0.081028
2.026112 0.916278 0.087320
1.729063 0.926931 0.071600
0.038486 0.989099 0.137933
2.043955 0.337547 0.127159
0.628012 0.794449 0.237652
2.014167 0.830135 0.092786
2.021179 0.297030 0.060840
2.006074 0.222603 0.150129
2.012553 0.718654 0.076826
0.126628 0.879733 0.246453
2.014067 0.221852 0.075742
2.022074 0.220839 0.125137
0.849447 0.036036 0.157596
2.024098 0.190148 0.166427
1.353729 0.071182 0.036276
2.031926 0.750208 0.100893
2.032816 0.780082 0.070591
0.588762 0.904395 0.018385
2.036882 0.229357 0.050515
0.693018 0.028876 0.191298
2.032852 0.230892 0.118425
0.014853 0.159977 0.234443
2.019598 0.843053 0.176573
2.016902 0.101517 0.145640
0.491606 0.476170 0.241500
2.045287 0.712677 0.129932
2.035427 0.694947 0.126864
2.048916 0.864810 0.125488
2.001647 0.913888 0.124021
1.211805 0.055828 0.042227
2.035264 0.224157 0.103852
2.025508 0.345656 0.154944
2.035546 0.726023 0.059531
2.008734 0.276993 0.174787
0.146164 0.027090 0.023673
2.014314 0.785718 0.158959
1.710771 0.378213 0.059712
1.008161 0.090294 0.024461
2.027677 0.625261 0.106097
2.002812 0.754347 0.144586
1.202483 0.025802 0.128306
2.012800 0.666294 0.074063
0.691634 0.540487 0.014497
0.738846 0.021830 0.098387
1.603456 0.272123 0.204088
1.958782 0.190628 0.053898
0.040536 0.707343 0.241064
0.637499 0.605530 0.014456
2.037639 0.183166 0.137945
1.284604 0.034097 0.169166
0.372976 0.970136 0.215200
2.030415 0.333994 0.097299
1.337367 0.803115 0.033461
2.021489 0.647323 0.134533
0.770617 0.938421 0.206958
0.744666 0.098595 0.020875
1.618331 0.749544 0.209550
2.017824 0.348008 0.065318
2.038313 0.328636 0.190803
2.017192 0.772864 0.111412
1.055855 0.501149 0.054820
1.689597 0.717165 0.043273
0.458618 0.980882 0.160187
1.091910 0.069129 0.214481
0.762155 0.182718 0.024606
1.782476 0.698586 0.201804
2.005690 0.712882 0.141472
0.815884 0.983503 0.141995
1.377343 0.971555 0.115387
2.019636 0.910267 0.135929
0.878115 0.343031 0.228050
1.901974 0.576001 0.097261
0.033437 0.995813 0.046418
0.227931 0.793547 0.005501
0.005005 0.624033 0.215939
2.007652 0.682386 0.138880
0.147246 0.618554 0.238931
2.005989 0.126293 0.114610
2.008474 0.747795 0.153841
2.001298 0.857592 0.150809
2.025124 0.119820 0.148109
0.533550 0.390838 0.013482
1.930766 0.409717 0.107564
2.024485 0.316321 0.073033
0.719563 0.801648 0.233247
2.013345 0.882962 0.090390
0.037270 0.189384 0.013445
2.015784 0.275097 0.093220
2.010821 0.308547 0.173000
2.033909 0.289244 0.112282
2.042875 0.331086 0.077792
2.039336 0.339690 0.068817
2.034917 0.195737 0.108191
2.013953 0.922460 0.103780
2.027577 0.749487 0.077519
2.000638 0.887062 0.082849
2.043238 0.860607 0.086299
1.386165 0.067827 0.036922
1.701402 0.941710 0.106800
1.737875 0.316037 0.199635
1.295788 0.102729 0.027892
2.036560 0.107947 0.066608
0.093307 0.965250 0.238810
2.018576 0.840891 0.076544
0.837970 0.796620 0.031262
1.420936 0.925110 0.210822
2.003428 0.277166 0.164066
2.040073 0.728954 0.132857
0.915311 0.449524 0.210891
0.802192 0.057622 0.033935
1.639218 0.764696 0.037443
2.038919 0.091718 0.151174
1.517096 0.115652 0.038003
1.851266 0.572172 0.109313
0.848305 0.472314 0.227265
1.019328 0.664093 0.178995
2.010992 0.147421 0.096275
1.777731 0.845218 0.208825
2.038118 0.748146 0.141266
1.543792 0.778637 0.215351
1.791284 0.233107 0.043125
2.038461 0.336184 0.102265
1.426528 0.969843 0.123596
0.791400 0.121000 0.028254
1.372036 0.957025 0.069502
1.993628 0.240629 0.062459
0.796878 0.481650 0.017744
1.435094 0.954444 0.080231
2.026656 0.128085 0.135971
1.981121 0.084749 0.149754
0.013570 0.509442 0.234479
1.778911 0.276069 0.042247
0.834187 0.258944 0.232726
1.862745 0.930454 0.118101
2.012230 0.680055 0.167305
1.809996 0.748099 0.044078
2.025570 0.769084 0.186028
1.499322 0.782449 0.035121
0.466212 0.981693 0.196787
0.039074 0.426071 0.016857
2.002534 0.716035 0.146029
0.028449 0.374108 0.239147
0.890328 0.049281 0.037551
2.028122 0.221336 0.119898
2.000288 0.313538 0.179206
0.013267 0.514743 0.241693
0.697740 0.423880 0.229555
0.616816 0.034067 0.043706
2.023364 0.091646 0.073414
0.007811 0.605221 -0.000325
1.984158 0.092809 0.076267
1.281026 0.775927 0.041917
1.379579 0.816153 0.032098
0.009014 0.279818 0.235739
2.048770 0.749451 0.090866
2.029164 0.787634 0.187305
1.028280 0.728842 0.038316
2.001214 0.102727 0.166548
0.772491 0.971527 0.068218
0.196445 0.134596 0.025669
2.016937 0.339622 0.074967
0.018953 0.890552 0.250145
2.000588 0.799573 0.125313
1.782905 0.603266 0.067138
1.484954 0.764118 0.202939
2.028930 0.271324 0.174884
1.474377 0.068612 0.042889
0.107334 0.981111 0.216480
2.026492 0.348990 0.140628
0.856696 0.922332 0.226321
2.033815 0.595950 0.076129
0.212348 0.010332 0.208549
1.887339 0.927609 0.136946
1.654498 0.891661 0.205978
1.345615 0.939756 0.043384
2.025588 0.792722 0.125310
2.036936 0.079405 0.138733
0.723628 0.957616 0.202342
2.006244 0.790524 0.087015
0.484169 0.026589 0.041023
0.499344 0.020168 0.163411
1.010602 0.368482 0.070531
0.017808 0.746581 0.010654
2.007610 0.172173 0.078813
1.484583 0.144288 0.214480
1.074737 0.493582 0.054483
0.158219 0.531955 0.229383
2.020352 0.301361 0.168629
1.211126 0.924857 0.035993
2.054257 0.245705 0.112442
1.042478 0.458950 0.106758
1.965974 0.899981 0.180782
1.291535 0.076875 0.216708
1.882535 0.344136 0.187349
1.627978 0.954808 0.140853
2.040402 0.096788 0.101012
1.963822 0.108758 0.183884
0.550175 0.034566 0.212821
2.038295 0.102904 0.177095
2.025195 0.408903 0.144709
0.884379 0.966399 0.087215
2.020001 0.799353 0.160508
2.012249 0.715509 0.135389
0.663527 0.982299 0.093287
0.034259 -0.000089 0.183998
1.697167 0.913105 0.057092
0.514908 0.482948 0.008561
2.047931 0.313367 0.104281
1.976046 0.370311 0.187262
2.033696 0.125638 0.135117
1.165119 0.821867 0.028212
1.340772 0.067282 0.211193
0.084077 0.984331 0.022068
2.001362 0.282336 0.081177
0.931010 0.351953 0.219985
2.016776 0.724579 0.168284
0.014647 0.013173 0.083312
2.007751 0.161367 0.097244
0.204467 0.957854 0.016694
1.784916 0.927361 0.078377
1.226335 0.055519 0.207993
1.651660 0.726221 0.205903
2.023007 0.116935 0.149028
1.959654 0.670533 0.192763
2.049318 0.245117 0.121517
1.175393 0.225046 0.211864
1.937604 0.205480 0.051707
1.268141 0.036401 0.175689
0.304475 0.989273 0.169685
2.017891 0.273142 0.089601
0.889229 0.057568 0.033130
2.001818 0.350240 0.144337
2.018226 0.826991 0.177203
1.101662 0.505432 0.193432
2.040798 0.271093 0.087862
1.987322 0.790532 0.054992
0.608491 0.093938 0.018934
0.890942 0.926935 0.220533
2.010548 0.695931 0.089083
1.700128 0.308811 0.198943
1.660294 0.635789 0.057301
2.024173 0.282589 0.075697
1.198891 0.832290 0.225844
1.998365 0.096619 0.159124
2.039833 0.740614 0.110457
1.908287 0.381325 0.072447
0.721583 0.032194 0.193798
2.035768 0.751377 0.149175
2.021132 0.167951 0.105210
1.770964 0.411009 0.133726
0.739881 0.549155 0.016772
1.725593 0.309370 0.199544
2.033975 0.332578 0.095046
2.024310 0.858399 0.143123
0.900092 0.315426 0.024845
2.036353 0.070023 0.119429
1.818269 0.835065 0.044154
2.033033 0.715423 0.127692
2.040083 0.091923 0.085418
1.569461 0.323399 0.109546
1.951756 0.266042 0.049372
2.022422 0.186151 0.198259
1.711595 0.093724 0.200179
2.015052 0.920555 0.112129
0.239364 0.617165 0.003147
0.088419 0.685639 0.247978
1.945222 0.099505 0.181831
1.330039 0.145385 0.030842
2.024277 0.380779 0.080066
0.290449 0.638912 0.011655
1.657027 0.770809 0.042844
1.259833 0.162162 0.220732
2.019767 0.325567 0.131726
2.010451 0.114133 0.153634
1.460891 0.209706 0.211121
0.456686 0.024708 0.040354
1.675915 0.888205 0.044204
2.008738 0.657800 0.178482
0.040667 0.572539 0.014464
0.922620 0.560153 0.218360
1.042132 0.025945 0.162400
0.970190 0.055856 0.213875
2.024197 0.296343 0.159639
0.951477 0.788631 0.020757
2.003979 0.189402 0.181230
0.044846 0.852381 0.000802
1.145539 0.912974 0.221889
0.186496 0.953166 0.011540
0.128391 0.003416 0.208159
2.007821 0.839730 0.099613
1.582408 0.075829 0.199917
0.027416 0.375058 0.238751
1.266439 0.930551 0.035843
1.994754 0.668835 0.193431
1.192114 0.512556 0.126674
0.043744 0.939142 0.001767
1.778133 0.269811 0.206242
0.019650 0.386543 0.244798
2.042207 0.866436 0.076275
0.832138 0.956166 0.051107
2.005977 0.763890 0.090744
1.068052 0.497638 0.052631
0.817384 0.958446 0.051655
1.708121 0.374836 0.057293
1.672341 0.656338 0.203773
1.557991 0.951164 0.090108
1.465805 0.966030 0.109049
0.554952 0.976884 0.072741
0.545245 0.019798 0.057775
0.778303 0.031952 0.175456
1.937911 0.077049 0.156960
2.007864 0.166258 0.184835
1.696463 0.105201 0.199995
2.033492 0.829768 0.188287
2.009141 0.738372 0.125480
</DataArray>
</Points>
<PointData>
<DataArray NumberOfComponents='1' type='Int32' Name='ParticleType' format='ascii'>
1
1
1
1
1
1
1
1
1
1
1
1
1
1
1
1
1
1
1
1
1
1
1
1
1
1
1
1
1
1
1
1
1
1
1
1
1
1
1
1
1
1
1
1
1
1
1
1
1
1
1
1
1
1
1
1
1
1
1
1
1
1
1
1
1
1
1
1
1
1
1
1
1
1
1
1
1
1
1
1
1
1
1
1
1
1
1
1
1
1
1
1
1
1
1
1
1
1
1
1
1
1
1
1
1
1
1
1
1
1
1
1
1
1
1
1
1
1
1
1
1
1
1
1
1
1
1
1
1
1
1
1
1
1
1
1
1
1
1
1
1
1
1
1
1
1
1
1
1
1
1
1
1
1
1
1
1
1
1
1
1
1
1
1
1
1
1
1
1
1
1
1
1
1
1
1
1
1
1
1
1
1
1
1
1
1
1
1
1
1
1
1
1
1
1
1
1
1
1
1
1
1
1
1
1
1
1
1
1
1
1
1
1
1
1
1
1
1
1
1
1
1
1
1
1
1
1
1
1
1
1
1
1
1
1
1
1
1
1
1
1
1
1
1
1
1
1
1
1
1
1
1
1
1
1
1
1
1
1
1
1
1
1
1
1
1
1
1
1
1
1
1
1
1
1
1
1
1
1
1
1
1
1
1
1
1
1
1
1
1
1
1
1
1
1
1
1
1
1
1
1
1
1
1
1
1
1
1
1
1
1
1
1
1
1
1
1
1
1
1
1
1
1
1
1
1
1
1
1
1
1
1
1
1
1
1
1
1
1
1
1
1
1
1
1
1
1
1
1
1
1
1
1
1
1
1
1
1
1
1
1
1
1
1
1
1
1
1
1
1
1
1
1
1
1
1
1
1
1
1
1
1
1
1
1
1
1
1
1
1
1
1
1
1
1
1
1
1
1
1
1
1
1
1
1
1
1
1
1
1
1
1
1
1
1
1
1
1
1
1
1
1
1
1
1
1
1
1
1
1
1
1
1
1
1
1
1
1
1
1
1
1
1
1
1
1
1
1
1
1
1
1
1
1
1
1
1
1
1
1
1
1
1
1
1
1
1
1
1
1
1
1
1
1
1
1
1
1
1
1
1
1
1
1
1
1
1
1
1
1
1
1
1
1
1
1
1
1
1
1
</DataArray>
<DataArray NumberOfComponents='1' type='Int32' Name='ParticleID' format='ascii'>
0
1
2
3
4
5
6
7
8
9
10
11
12
13
14
15
16
17
18
19
20
21
22
23
24
25
26
27
28
29
30
31
32
33
34
35
36
37
38
39
40
41
42
43
44
45
46
47
48
49
50
51
52
53
54
55
56
57
58
59
60
61
62
63
64
65
66
67
68
69
70
71
72
73
74
75
76
77
78
79
80
81
82
83
84
85
86
87
88
89
90
91
92
93
94
95
96
97
98
99
100
101
102
103
104
105
106
107
108
109
110
111
112
113
114
115
116
117
118
119
120
121
122
123
124
125
126
127
128
129
130
131
132
133
134
135
136
137
138
139
140
141
142
143
144
145
146
147
148
149
150
151
152
153
154
155
156
157
158
159
160
161
162
163
164
165
166
167
168
169
170
171
172
173
174
175
176
177
178
179
180
181
182
183
184
185
186
187
188
189
190
191
192
193
194
195
196
197
198
199
200
201
202
203
204
205
206
207
208
209
210
211
212
213
214
215
216
217
218
219
220
221
222
223
224
225
226
227
228
229
230
231
232
233
234
235
236
237
238
239
240
241
242
243
244
245
246
247
248
249
250
251
252
253
254
255
256
257
258
259
260
261
262
263
264
265
266
267
268
269
270
271
272
273
274
275
276
277
278
279
280
281
282
283
284
285
286
287
288
289
290
291
292
293
294
295
296
297
298
299
300
301
302
303
304
305
306
307
308
309
310
311
312
313
314
315
316
317
318
319
320
321
322
323
324
325
326
327
328
329
330
331
332
333
334
335
336
337
338
339
340
341
342
343
344
345
346
347
348
349
350
351
352
353
354
355
356
357
358
359
360
361
362
363
364
365
366
367
368
369
370
371
372
373
374
375
376
377
378
379
380
381
382
383
384
385
386
387
388
389
390
391
392
393
394
395
396
397
398
399
400
401
402
403
404
405
406
407
408
409
410
411
412
413
414
415
416
417
418
419
420
421
422
423
424
425
426
427
428
429
430
431
432
433
434
435
436
437
438
439
440
441
442
443
444
445
446
447
448
449
450
451
452
453
454
455
456
457
458
459
460
461
462
463
464
465
466
467
468
469
470
471
472
473
474
475
476
477
478
479
480
481
482
483
484
485
486
487
488
489
490
491
492
493
494
495
496
497
498
499
</DataArray>
<DataArray NumberOfComponents='1' type='Int8' Name='IsActive' format='ascii'>
1
0
1
0
0
1
0
1
1
1
1
1
1
1
1
0
1
1
1
0
0
1
0
1
0
0
1
0
1
1
0
1
1
0
1
1
0
0
1
1
1
1
1
1
0
1
1
0
1
1
0
1
0
1
1
1
1
1
0
1
1
0
1
1
1
1
1
0
1
0
0
1
1
0
1
1
1
0
0
0
1
0
1
0
0
1
1
0
0
0
1
0
0
1
0
1
1
1
1
1
1
1
0
0
0
0
0
0
0
1
0
1
1
0
1
1
0
0
1
1
1
1
1
1
1
1
0
1
0
1
1
1
0
1
0
1
1
0
1
1
0
1
1
0
0
1
1
0
1
1
0
1
0
0
1
1
1
1
1
1
0
1
0
0
1
0
0
0
1
1
1
0
0
1
0
0
1
0
0
0
0
1
1
1
1
0
1
1
0
1
0
0
0
0
1
0
0
1
0
1
0
0
1
1
1
0
1
0
0
1
0
0
0
0
1
0
0
1
0
1
0
1
1
0
0
1
0
1
1
1
1
1
1
0
1
1
0
1
0
1
1
1
1
1
0
1
1
1
1
1
1
0
1
1
0
1
1
1
1
1
0
1
0
0
0
0
1
1
0
1
0
1
0
0
0
0
0
0
1
0
0
0
1
1
1
1
0
1
0
1
1
0
0
1
1
1
0
1
1
1
1
0
1
0
1
1
0
1
1
1
1
1
1
0
1
1
1
1
1
0
1
0
1
1
1
0
1
1
0
0
1
1
1
0
0
1
1
1
1
0
0
1
0
1
1
0
0
0
1
1
0
1
1
0
1
1
1
1
1
1
0
0
1
0
1
1
1
1
0
1
1
1
0
1
0
1
1
1
1
1
0
1
1
0
1
1
0
0
1
0
1
1
0
1
0
1
1
1
0
1
0
1
0
1
1
1
1
0
1
0
1
1
1
1
0
1
0
0
1
0
1
1
1
0
1
1
0
1
1
0
1
1
0
0
1
1
1
0
0
1
0
1
0
0
1
1
1
1
0
1
1
1
1
0
1
1
1
0
0
1
1
1
0
1
1
1
1
0
1
0
1
1
1
1
0
1
1
1
1
1
1
1
1
0
1
0
1
1
1
1
1
1
1
1
1
1
0
1
0
0
</DataArray>
<DataArray NumberOfComponents='1' type='Int32' Name='ParticleTetID' format='ascii'>
6898
-50400
91618
-69862
-102510
95701
-69112
46043
23
85876
88584
57454
8854
58859
38527
-93293
62617
8600
63529
-98831
-12127
39277
-98411
5978
-93293
-102840
6212
-91191
100560
19116
-34180
38013
3994
-39168
37385
11448
-69112
-42296
37947
19459
16250
91466
70029
12438
-90119
61062
94294
-93119
19618
21495
-90337
80251
-25302
100560
74615
51745
89135
44956
-27681
78815
17337
-90337
39977
20599
49356
60649
29171
-27681
22920
-104925
-80727
99195
69618
-96019
80251
12892
33386
-98411
-34180
-57434
64722
-57434
105095
-42296
-102510
95155
47739
-50400
-98306
-69112
42101
-93293
-104802
73235
-83399
74641
99903
-90337
13589
15947
48073
25514
-96019
-58762
-86274
-93119
-58762
-98765
-86274
51208
-96731
72356
92798
-24526
38527
31990
-87306
-96325
100592
49671
100821
9028
8600
56441
20599
28365
-98765
-39168
-17626
35952
11292
100092
-96325
34707
-58762
64129
76883
-104802
30878
99670
-95998
29563
3571
-12127
-70156
2510
76436
-70156
6987
3571
-44138
78032
-83215
-102510
96694
19370
31610
27480
99903
20828
-39168
58968
-96019
-17626
100975
-39168
-90337
-74393
72205
105750
97137
-87514
-102840
3720
-93819
-39168
99126
-96354
-39168
-102840
-91248
14435
30502
98877
52922
-89958
56512
97137
-96849
100160
-96019
-92373
-85990
-91248
70045
-69112
-83215
28930
-85990
5609
-102840
-83820
102317
-64130
17893
-83215
100903
-90337
-98831
64291
-34180
-104802
-98210
-27681
65919
-69112
-98308
-91248
-61396
80504
-70156
9045
36756
-74393
-102840
100883
-82524
51216
103283
50974
30448
69970
44700
-99021
97861
49067
-83399
70925
-104802
30265
87568
37657
-58762
-98308
-102510
22347
9915
77591
105399
32657
40702
-34180
64385
101148
-27681
94359
66814
99980
92599
100807
-104802
26063
-42296
-93119
-98210
-42296
99765
14275
-83399
50507
-96019
85474
-94130
-91191
-25302
-83399
-58762
-99021
-79211
-98411
-48492
-96019
27884
30264
17742
40300
-100353
101369
-96019
8874
83686
-61396
-34180
20798
43724
47715
-98831
53215
14103
77893
27975
-24687
7102
-102840
36578
8868
-83399
83922
97191
78500
64129
100307
69075
-42296
104924
100092
30182
78387
448
-57434
32230
-94146
15605
93299
74099
-34180
101063
38611
-83215
-91191
100092
62628
64515
-96731
-101355
96730
38568
64451
98826
-98411
-94146
6335
-44138
12535
45746
-58762
-71594
-17626
29509
77882
-61396
56652
103165
-96849
50142
-25092
66943
10813
47775
6296
-17626
-98831
20335
-83820
20117
83491
69671
100743
-56272
50368
56919
54478
-91191
67332
-83215
103941
78653
78164
73193
9312
-98306
25576
58742
-44138
-19405
54872
-70156
-34180
59492
-101044
43763
4952
-94130
98307
-42296
37976
58513
99809
-94130
217
-93119
101509
-24687
54321
7512
82966
13474
-42296
33297
-83215
47002
28798
83762
20471
-94130
38611
-99096
-69862
50043
-94130
62541
81836
92282
-91248
39113
36456
-92373
51224
104924
-102840
2617
71071
-102840
-24687
16091
90640
79175
-83399
-98210
105828
-98831
23320
-34180
-96731
65384
54718
-99721
5470
-27681
57508
56084
25576
83549
-24526
87324
3563
72638
-50400
-42296
11769
31552
20648
-42146
88021
104102
85000
9686
-95447
18116
-99721
100560
88733
55374
87735
-96019
54495
101063
44985
42145
91693
89152
35270
101063
-96019
64691
-98411
45033
65874
9045
46900
43849
55164
12848
102468
79427
37982
-99721
5470
-90337
-102840
</DataArray>
<DataArray NumberOfComponents='3' type='Float32' Name='vels' format='ascii'>
13.729523 4.969305 0.023788
22.746117 0.571945 -0.290697
1.809109 0.000849 0.003294
20.081773 -0.217840 -0.277921
23.484112 -0.510887 0.083072
1.105246 -0.005941 0.000839
20.333378 0.277334 -0.621174
18.125126 -3.507050 -0.030441
11.794892 5.437927 0.019372
13.369844 3.047158 0.002241
23.927420 -0.583225 0.017378
1.454945 0.001589 -0.003854
4.229209 5.630646 0.088636
4.373292 -0.289321 -0.000059
22.995167 0.323890 -0.005276
20.644419 -0.244898 0.011251
15.654228 4.591639 -0.001001
20.167866 -1.820000 -0.052717
11.760749 2.590090 0.010247
19.044396 -1.244907 -0.238396
21.835456 0.067503 1.640637
9.183504 1.214711 -1.326327
20.051412 -0.328575 -0.076616
1.994733 -0.005836 -0.004527
18.297037 -0.214221 0.115799
22.591256 -0.226395 0.244628
4.745268 -0.361444 0.134176
21.418610 0.522880 0.667956
0.163532 0.037893 -0.019620
6.859068 0.144751 0.044036
22.058982 -0.221339 0.905368
2.791685 -0.121383 0.000219
8.245525 0.462785 0.056712
19.420937 -0.419907 0.689956
14.529807 0.002320 -0.013620
7.755437 -3.028885 -0.000845
19.690416 0.183231 -1.354405
17.262796 -0.581290 -0.236368
26.541253 -4.661077 0.019197
19.207936 2.220867 0.006246
11.806979 -1.080819 -0.013289
3.619878 -0.215908 -0.000138
2.564719 -0.031686 -0.000269
4.759617 -0.005534 -0.011437
23.253517 -0.506630 -0.243077
2.879839 0.000052 -0.002143
-0.045049 0.013093 -0.001829
21.234953 -0.478901 -0.021576
17.703792 -1.288860 0.063273
14.762588 -2.706856 -0.043544
15.641460 0.592641 2.478244
0.021686 -0.027316 0.008549
23.583462 0.705706 0.031841
0.067989 0.062779 -0.011014
4.136698 -0.797807 0.010535
26.348944 -0.252626 0.045853
6.383268 0.504463 0.003322
21.472500 -1.287330 0.062455
16.294222 1.334800 -0.294998
10.619151 -0.477678 0.023361
16.969611 -3.327802 0.013239
15.971599 0.661878 2.362355
1.394573 -0.000220 -0.005471
16.188887 -0.669769 -0.323863
4.476997 -0.917215 -0.000972
1.117995 0.007270 -0.000809
11.018813 -7.416376 -0.038107
16.358776 2.099030 -0.512324
20.372304 -0.058469 0.066950
12.106804 0.099396 -0.173926
20.829917 -0.376475 0.351593
1.256161 -1.044511 -0.001381
11.912441 0.205475 0.017659
21.624399 0.251894 -0.102345
-0.076658 0.005572 0.000311
7.103275 6.467393 -0.035093
15.624036 -0.988089 0.147278
16.029687 -0.488661 0.199500
22.453575 -0.519201 0.546982
20.858756 -0.561026 1.745228
11.049588 -0.096541 0.013889
22.318605 -0.637696 0.060034
8.697922 -0.320669 0.011004
17.872999 -0.508012 -0.210598
21.544261 -0.576351 -0.237666
3.719023 -0.182269 0.000048
7.047480 0.153619 0.061887
22.850020 0.504740 0.291769
16.743318 -0.167094 -0.066923
20.405083 0.175823 -1.416689
5.419460 2.740175 0.013096
18.397170 2.312845 0.926571
22.928140 -0.721532 0.020940
21.866586 4.638597 0.016245
21.674624 0.629290 -1.020716
0.490414 -0.000343 0.000331
0.083225 0.043089 0.010160
18.277976 1.459873 2.053854
20.242824 -3.496179 -0.008721
24.449304 1.201299 -0.127414
14.736730 2.481939 -0.013003
3.881376 0.035827 0.017328
16.604183 0.954922 -1.554912
16.518350 0.455337 -2.328386
22.200797 0.725471 -0.532589
19.328759 -0.349707 0.354440
19.388330 0.531497 -1.176200
23.505890 -0.017541 0.011079
21.587448 0.974728 -0.641169
23.515403 0.050964 -0.078257
16.482712 -1.531327 -0.673981
5.125670 1.187444 -0.002271
2.133496 0.002261 0.000537
22.036278 0.624905 -0.469285
23.528226 0.379064 -0.008333
13.861532 -3.119056 0.032738
21.786999 -0.601339 -0.143358
14.298232 0.925327 0.629781
0.885850 0.001094 -0.010963
6.041988 -0.070333 0.205810
0.160788 0.000994 0.002765
24.796516 -0.441621 0.008114
20.088014 -1.736411 -0.020848
13.872326 0.478724 0.032191
17.553080 -1.081885 -0.213916
10.186273 0.896618 -0.079605
23.130137 -0.019389 0.136113
16.798710 -0.409249 0.846982
21.975496 -0.398811 0.347033
16.110784 0.642397 0.054554
12.822178 -2.096528 -0.008799
-0.077930 0.026600 -0.006541
17.775444 0.811653 0.366037
2.147569 0.018237 0.039825
16.323602 0.461840 -1.527500
15.045661 0.312403 0.044116
13.198440 5.493786 0.000756
23.078656 -0.988561 -0.027553
4.005886 -0.010403 -0.000496
4.481373 -0.091304 -0.001219
22.910553 -0.665074 -0.024346
12.390406 -1.148720 0.060877
10.466115 3.463569 0.017310
23.086697 0.462772 0.127130
20.097993 -0.001831 0.998274
6.826443 0.109165 0.016293
2.908424 -0.014508 -0.015196
21.604291 0.016050 0.594368
13.472716 2.423343 -0.008412
16.079785 5.309264 -0.003115
16.746200 -1.534288 1.226030
15.875698 -0.825944 0.006878
23.785807 0.531745 -0.031865
21.848852 0.420922 0.793156
12.400454 0.362815 -0.017257
9.470638 0.357032 0.100192
8.961873 -0.214205 0.011866
23.002809 -7.332132 -0.079096
-0.073975 -0.002840 0.010823
5.302788 5.003010 0.026050
17.330247 -0.352344 1.789258
15.838387 0.374378 0.075140
19.581049 0.422816 -0.371368
23.074533 -0.332614 -0.039117
19.365717 -1.398436 0.077502
16.564731 -0.331065 1.203524
19.095386 0.410807 1.106184
21.597133 -0.714607 0.164443
15.101947 -0.454630 0.021136
0.151970 0.000007 0.002551
-0.021644 -0.004174 0.004774
18.889380 -0.021748 0.028150
23.744358 -0.623742 0.078356
22.010408 0.293277 -0.008260
21.550093 0.597724 0.177560
19.931805 -0.620684 -0.104144
0.083755 0.000013 -0.000311
22.186483 -0.580909 0.085191
18.532700 -0.364004 0.898198
22.731125 -0.410106 -0.267865
16.903104 -0.287756 -3.000994
16.952475 0.042274 -0.050935
18.738273 7.458669 -0.008031
18.645622 -0.033451 -0.012520
5.466170 0.005270 0.019072
15.925088 1.660978 -1.064572
15.249085 -0.964694 0.041984
0.087326 -0.002083 -0.010725
22.474392 0.693944 0.051149
4.345369 0.351404 -0.001014
16.990761 0.499263 -0.526326
17.556272 0.387056 -1.088772
22.424382 0.267650 -0.125181
19.438241 -0.645570 0.307630
1.087571 0.008731 -0.000246
19.790404 0.145941 -0.245545
23.805036 0.246133 -0.090822
10.754341 -0.427690 -0.007561
17.974424 -0.188307 1.097113
14.999601 0.206072 0.155341
22.916248 -0.253452 -0.514480
18.818351 0.349067 -1.391396
1.857353 0.048660 0.003113
15.899244 0.166904 -2.510908
6.297572 -0.191491 0.005199
23.480659 0.156312 -0.174877
-0.071897 0.036041 -0.004634
18.643998 0.568643 0.689326
18.384430 -0.878138 0.303210
2.964967 -0.036322 0.000020
23.583081 -0.560089 0.024302
23.161558 -0.767744 -0.045548
20.291565 1.561776 -0.694303
16.401910 -0.321120 -0.053734
18.588538 0.013061 0.053446
21.410000 0.626257 0.310330
18.442322 0.652253 -0.220620
17.690202 -0.279277 -2.290119
18.769647 0.377517 0.667154
0.074876 -0.000123 -0.005290
17.750980 -0.020871 0.508239
14.392845 6.042290 0.011422
17.470348 -3.035936 0.009117
20.417662 -0.645471 0.231195
23.602854 -0.615112 0.038929
16.750231 -0.018732 0.028631
18.576584 -0.501876 -0.358508
4.318307 0.220161 0.006398
6.062479 -0.078533 -0.009243
17.738941 10.315339 -0.035781
15.312962 0.508690 0.181939
-0.007888 -0.032089 0.007344
4.777030 0.449060 0.002199
21.328316 0.562810 0.238438
14.551261 0.020648 -0.039479
3.193372 0.006129 0.005514
22.195289 0.732663 -0.247530
20.203803 1.230243 -0.062075
22.344953 -0.609651 0.782143
9.897844 0.376572 0.015979
6.678295 -0.555727 0.012189
16.024486 -7.714432 -0.018839
21.407858 0.824238 0.337188
17.297617 0.488402 2.433505
23.606339 -0.372745 -0.031862
3.388868 -0.222062 -0.338934
12.841191 -5.556851 -0.000435
4.696581 0.017918 0.030986
5.654079 -0.297713 -0.005092
8.749736 -1.338960 -0.001224
14.119600 -3.451245 -0.021876
21.838368 -0.661170 -0.191753
5.563252 0.109733 0.070756
17.933743 -0.096647 0.010978
15.580226 -0.323972 0.093963
3.417386 -2.375542 -0.000144
20.100040 -1.151256 0.068172
-0.017854 0.000532 0.036782
1.855094 0.016916 -0.000012
-0.043843 0.032443 -0.011182
23.244983 -0.730652 -0.131282
3.998362 0.003651 0.007976
20.722970 -0.207133 -0.102217
22.750940 -0.531753 0.033055
20.545453 -0.083357 -0.102342
20.285490 -0.903266 0.046184
4.604041 -0.100038 0.000422
20.266180 0.980126 0.127830
19.879728 0.548398 -0.714806
6.160000 0.881488 -0.006231
18.274489 0.518023 -0.272507
-0.015402 -0.000885 -0.005949
22.049778 0.519534 -0.195881
19.783170 0.573937 0.196976
23.087101 0.531150 0.110178
20.744513 0.554739 -1.416790
18.689961 0.464014 -2.153891
22.952633 -0.348073 -0.012363
15.385875 1.081334 -0.018862
20.312842 -0.228192 -0.737240
18.555870 0.457150 -0.153506
18.423548 1.307541 -2.021391
17.837031 0.272606 0.033831
16.415017 -1.054842 0.039088
4.240034 1.226497 0.003153
21.323243 -0.037096 -0.011849
15.862789 -1.859636 -1.900831
0.020734 0.000878 -0.000013
20.159521 0.339274 -0.414015
10.657326 3.470243 -0.002964
4.165827 -0.074715 0.000340
21.204620 0.562607 -0.004813
21.937366 -0.464106 0.805875
2.813145 -1.187708 0.031665
8.168669 -0.553180 -0.016446
14.962437 -6.234058 0.009094
17.251731 -2.118573 0.970715
12.206655 1.987063 0.047607
19.575141 -1.831754 0.005062
4.152565 -0.399604 0.005799
1.771459 4.196130 0.290138