<VTKFile type='UnstructuredGrid' version='1.0' byte_order='LittleEndian' header_type='UInt64'>
<UnstructuredGrid>
<Piece NumberOfCells='500' NumberOfPoints='500'>
<Points>
<DataArray NumberOfComponents='3' type='Float32' Name='Position' format='ascii'>
0.049496 0.612856 0.228432
0.121918 0.397190 0.116476
0.027268 0.980817 0.223124
0.078156 0.768600 0.183481
0.125948 0.738134 0.105527
0.040547 0.191164 0.247425
0.099501 0.300139 0.074585
0.039859 0.795013 0.208163
0.051077 0.614438 0.227361
0.058796 0.767670 0.225372
0.024036 0.247801 0.034933
0.025205 0.005306 0.056409
0.067384 0.540506 0.217212
0.042642 0.255000 0.235884
0.064735 0.690349 0.213646
0.104133 0.881934 0.149985
0.045080 0.325277 0.201903
0.071430 0.926320 0.160602
0.016147 0.795039 0.219376
0.099902 0.117616 0.113225
0.115643 0.284127 0.144690
0.014133 0.096915 0.236273
0.101225 0.691366 0.079851
0.034582 0.991741 0.151217
0.107493 0.875720 0.131285
0.119393 0.691128 0.119620
0.111488 0.500337 0.100210
0.113122 0.366778 0.158696
0.025058 0.845986 0.003424
0.042659 0.936053 0.217437
0.125918 0.662894 0.152017
0.038848 0.310355 0.246280
0.035835 0.960113 0.184776
0.093045 0.632662 0.180531
0.052701 0.954175 0.127352
0.085920 0.587923 0.201103
0.090201 0.294530 0.079481
0.097317 0.144030 0.123439
0.021436 0.567775 0.048511
0.082294 0.097371 0.069094
0.022998 0.090760 0.216064
0.035877 0.291262 0.238558
0.024396 0.292985 0.005797
0.025542 0.039186 0.032585
0.133979 0.639173 0.115562
0.044464 0.525887 0.007812
0.026473 0.123369 0.022427
0.118224 0.692812 0.165366
0.086995 0.927441 0.107610
0.080395 0.638336 0.197420
0.098239 0.845878 0.170869
0.019701 0.670311 0.220788
0.133398 0.371941 0.131351
0.023489 0.847451 0.003837
0.044644 0.477976 0.227209
0.002779 0.392213 0.211037
0.032967 0.857118 0.230089
0.063994 0.458739 0.041270
0.085302 0.903784 0.120704
0.035116 0.048380 0.164876
0.056786 0.253979 0.028864
0.097158 0.828771 0.172816
0.030945 0.994272 0.193277
0.105966 0.605091 0.188585
0.069314 0.648911 0.044841
0.043581 0.724504 0.004029
0.024429 0.389961 0.031051
0.106813 0.894136 0.128130
0.055849 0.107964 0.203276
0.098934 0.114891 0.155611
0.094350 0.184245 0.157964
0.068476 0.467524 0.027259
0.044608 0.959369 0.113192
0.109919 0.837545 0.089549
0.042045 0.652835 0.243899
0.022567 0.578182 0.030691
0.088615 0.663633 0.056854
0.093388 0.685597 0.069244
0.122010 0.626682 0.155193
0.111358 0.572191 0.149788
0.012749 0.206794 0.215991
0.122952 0.594522 0.150085
0.091398 0.906022 0.070968
0.117776 0.141103 0.119954
0.130127 0.748591 0.121583
0.043899 0.255686 0.237618
0.013638 0.966970 0.188258
0.118139 0.400019 0.134079
0.066805 0.089737 0.104728
0.109331 0.277962 0.078218
0.047034 0.585635 0.021635
0.095665 0.882989 0.123883
0.131383 0.622608 0.136940
0.018067 0.247973 0.038088
0.116175 0.414684 0.106310
0.041831 0.613625 0.248424
0.010853 0.554647 0.249126
0.098392 0.774748 0.192374
0.054144 0.833511 0.050335
0.049856 0.147634 0.200816
0.079707 0.254160 0.047579
0.011731 0.984928 0.180495
0.127398 0.790544 0.102638
0.112919 0.423358 0.084591
0.114898 0.779012 0.133708
0.113977 0.692828 0.176331
0.127127 0.434783 0.096946
0.122668 0.265021 0.124600
0.112735 0.775542 0.128774
0.030211 0.053221 0.116670
0.108656 0.130240 0.092043
0.117776 0.467699 0.178778
0.014269 0.910921 0.240866
0.121822 0.449460 0.103535
0.062460 0.691430 0.214529
0.059901 0.702963 0.043300
0.115148 0.572199 0.098623
0.096220 0.871626 0.170925
0.015797 0.993135 0.224141
0.115476 0.498826 0.081439
0.007407 0.038405 0.005812
0.020160 0.321416 0.219961
0.079435 0.923531 0.155152
0.079504 0.081759 0.124590
0.087477 0.652780 0.186319
0.047948 0.899639 0.029469
0.116502 0.219195 0.135804
0.097837 0.623720 0.191345
0.118954 0.752923 0.100092
0.042758 0.122403 0.039086
0.070237 0.171019 0.225148
0.014948 0.502111 0.224068
0.109510 0.859674 0.165913
0.088089 0.073332 0.150702
0.118035 0.434256 0.079567
0.080793 0.315787 0.054065
0.078972 0.437149 0.196245
0.118837 0.613343 0.127030
0.035435 0.983270 0.099838
0.034867 0.491777 0.233763
0.135534 0.565860 0.123376
0.076086 0.693099 0.052607
0.080968 0.357588 0.040238
0.127474 0.339326 0.143846
0.113204 0.720159 0.158197
0.015004 0.970443 0.192681
0.028623 0.017502 0.101572
0.104769 0.723139 0.179577
0.076777 0.318047 0.046996
0.065288 0.333806 0.039427
0.068661 0.128970 0.171990
0.066335 0.865241 0.203716
0.124451 0.304714 0.133267
0.122398 0.743313 0.143320
0.056971 0.956037 0.089469
0.041642 0.958400 0.173825
0.024614 0.034428 0.162411
0.033216 0.434640 0.034873
0.019856 0.567493 0.247903
0.059956 0.560584 0.226018
0.106950 0.650483 0.180057
0.040536 0.948524 0.174136
0.092621 0.817689 0.092904
0.114950 0.769757 0.113996
0.036320 0.141991 0.225095
0.102106 0.645175 0.176775
0.089507 0.815636 0.182426
0.107000 0.552530 0.095385
0.046310 0.047676 0.166563
0.015306 0.031606 0.170435
0.023638 0.989054 0.126787
0.091100 0.168576 0.066239
0.113757 0.705996 0.135188
0.064854 0.686866 0.216056
0.103090 0.448058 0.154040
0.116915 0.615258 0.179825
0.017777 0.986190 0.004572
0.119014 0.540499 0.123301
0.085247 0.667917 0.184269
0.116542 0.697640 0.109766
0.107810 0.595341 0.096708
0.072184 0.856836 0.043492
0.046841 0.351069 0.208394
0.074463 0.937700 0.170637
0.021362 0.014808 0.077147
0.074248 0.895817 0.090904
0.089231 0.910308 0.073956
0.032331 0.989899 0.139489
0.124472 0.413603 0.126183
0.040147 0.783186 0.236677
0.120968 0.793279 0.092480
0.088207 0.373144 0.062531
0.114289 0.268186 0.149976
0.102528 0.655022 0.077107
0.013185 0.885592 0.247296
0.097838 0.277487 0.075325
0.121643 0.295845 0.125741
0.038652 0.046130 0.156743
0.113527 0.226092 0.163596
0.055284 0.133054 0.037466
0.109334 0.699093 0.103442
0.094729 0.737247 0.073417
0.040378 0.898932 0.021026
0.095121 0.266456 0.055015
0.036649 0.033696 0.190486
0.134458 0.283960 0.118180
0.017900 0.156476 0.235119
0.109735 0.820201 0.172941
0.103770 0.115124 0.144418
0.018239 0.475214 0.241885
0.123798 0.629828 0.131678
0.116864 0.623409 0.127668
0.118053 0.841980 0.128344
0.086632 0.903180 0.123489
0.074184 0.096891 0.044223
0.118747 0.277946 0.102157
0.122775 0.428501 0.155686
0.073181 0.667164 0.063496
0.110250 0.329172 0.173194
0.018147 0.024377 0.023122
0.119345 0.738024 0.156423
0.100606 0.465173 0.063561
0.049445 0.149870 0.024735
0.129489 0.546199 0.108131
0.117345 0.695338 0.142655
0.009554 0.051382 0.127433
0.097771 0.588894 0.075376
0.027005 0.535991 0.013480
0.029639 0.022605 0.098529
0.089041 0.432380 0.202488
0.058636 0.217389 0.055630
0.038571 0.710079 0.239690
0.043436 0.597122 0.014724
0.120288 0.231444 0.136311
0.054514 0.065683 0.168693
0.005012 0.971163 0.217551
0.123208 0.418715 0.099902
0.069286 0.594643 0.036862
0.127452 0.551795 0.133044
0.034516 0.928638 0.204171
0.034601 0.113155 0.022647
0.067069 0.621328 0.209074
0.080388 0.421854 0.067110
0.080874 0.397724 0.185773
0.122367 0.718373 0.113814
0.082916 0.507040 0.064630
0.054063 0.628620 0.044135
0.033891 0.981188 0.159889
0.048337 0.120615 0.212921
0.022072 0.208005 0.022659
0.031651 0.619019 0.197885
0.132459 0.646847 0.142901
0.021409 0.973676 0.140837
0.046106 0.947320 0.114445
0.090884 0.898538 0.136016
0.055508 0.413547 0.232451
0.106571 0.521862 0.104613
0.003781 0.996703 0.037333
0.029924 0.793304 0.007259
0.011544 0.620036 0.217534
0.132016 0.577478 0.139740
0.023548 0.623679 0.241313
0.104774 0.143308 0.114736
0.107833 0.670918 0.153710
0.102079 0.830028 0.150894
0.101797 0.139520 0.149786
0.045032 0.395370 0.010188
0.125702 0.478598 0.110434
0.107627 0.386058 0.074664
0.042383 0.778162 0.230777
0.090787 0.866191 0.089018
0.035525 0.190065 0.015469
0.126299 0.344711 0.092668
0.084860 0.395376 0.172500
0.123179 0.375730 0.111602
0.116499 0.408541 0.082962
0.106212 0.416273 0.075276
0.115429 0.255364 0.108502
0.095329 0.902959 0.105053
0.108442 0.682866 0.078805
0.102380 0.865596 0.081797
0.106000 0.851387 0.091800
0.040623 0.118779 0.040856
0.090352 0.923718 0.105073
0.081756 0.414849 0.198605
0.032559 0.197144 0.030100
0.085027 0.123094 0.069659
0.024603 0.964770 0.239935
0.108119 0.820888 0.076860
0.003756 0.744691 0.028880
0.080467 0.863324 0.210586
0.111582 0.338519 0.164389
0.132702 0.664394 0.130169
0.030815 0.481716 0.209023
0.027564 0.062117 0.031652
0.059328 0.638752 0.040641
0.103773 0.103003 0.148488
0.033905 0.198249 0.038173
0.137427 0.519237 0.112263
0.042186 0.486452 0.225966
0.113721 0.511097 0.165410
0.110932 0.167088 0.095276
0.079541 0.809358 0.206021
0.127400 0.675071 0.139720
0.072408 0.625772 0.214159
0.063751 0.292732 0.042790
0.114370 0.421328 0.103480
0.068953 0.947876 0.124630
0.020602 0.142936 0.028696
0.072217 0.923968 0.071066
0.096009 0.280310 0.061603
0.033766 0.490642 0.015734
0.054490 0.925053 0.082930
0.101997 0.157120 0.133835
0.088902 0.092685 0.150960
0.017178 0.506421 0.234862
0.084406 0.343314 0.044472
0.034789 0.317755 0.238185
0.089955 0.916557 0.117633
0.109499 0.599119 0.167172
0.082015 0.682202 0.042701
0.113748 0.722937 0.182056
0.048140 0.608096 0.037945
0.032586 0.979119 0.193064
0.037370 0.426749 0.016491
0.127039 0.655443 0.147794
0.028807 0.374098 0.239950
0.060812 0.063117 0.038685
0.117182 0.270852 0.118385
0.098609 0.385968 0.177337
0.012118 0.516078 0.243954
0.022673 0.434519 0.227950
0.018764 0.037504 0.044443
0.088720 0.123534 0.077000
0.009629 0.606673 0.000173
0.076593 0.111455 0.078077
0.057608 0.554109 0.044112
0.071501 0.616342 0.032753
0.007485 0.280831 0.236136
0.113919 0.694879 0.097339
0.109712 0.734518 0.187646
0.078322 0.533377 0.043409
0.095715 0.113550 0.169620
0.015377 0.962492 0.068229
0.022725 0.131268 0.025965
0.110131 0.410324 0.078950
0.005748 0.891469 0.249009
0.116151 0.738237 0.124290
0.100865 0.524532 0.072662
0.077458 0.548202 0.200616
0.107930 0.320948 0.171525
0.050801 0.112940 0.044332
0.012742 0.982801 0.218856
0.120131 0.442553 0.139244
0.042871 0.899966 0.223050
0.108589 0.532621 0.084377
0.029492 0.009296 0.206993
0.091865 0.915342 0.136294
0.066500 0.840231 0.203472
0.042795 0.892200 0.045618
0.132476 0.741255 0.123625
0.103265 0.110881 0.137935
0.054383 0.952978 0.198875
0.123600 0.731882 0.087352
0.023772 0.025709 0.040655
0.035512 0.018141 0.163410
0.112030 0.483919 0.084314
0.017082 0.746664 0.011333
0.110346 0.197630 0.079799
0.028897 0.272727 0.214606
0.084571 0.504300 0.067004
0.029169 0.537972 0.226870
0.123031 0.373141 0.165402
0.037938 0.860826 0.034930
0.116035 0.311593 0.114009
0.130936 0.491744 0.113218
0.064454 0.878685 0.181604
0.047363 0.140994 0.216223
0.090254 0.415292 0.185707
0.078874 0.933770 0.141749
0.094896 0.108071 0.103475
0.072849 0.127147 0.183976
0.036288 0.036879 0.209204
0.105029 0.131213 0.173359
0.118619 0.476689 0.142810
0.057336 0.954111 0.089525
0.123607 0.759602 0.156608
0.133945 0.631429 0.136615
0.036828 0.975865 0.095036
0.015455 0.001029 0.185272
0.082312 0.879407 0.058911
0.015235 0.485757 0.006098
0.134075 0.388273 0.104288
0.102881 0.430837 0.186907
0.110331 0.154993 0.133458
0.057268 0.634083 0.028617
0.064157 0.121611 0.207009
0.012974 0.986190 0.017755
0.120904 0.370463 0.080396
0.064750 0.449260 0.218560
0.109423 0.659810 0.166954
0.017387 0.015234 0.079574
0.109584 0.181365 0.098881
0.010917 0.963187 0.014140
0.085573 0.911224 0.077677
0.043409 0.103927 0.206573
0.076067 0.592897 0.205682
0.112499 0.139000 0.148722
0.095334 0.584209 0.190974
0.118080 0.320721 0.121044
0.059135 0.458047 0.206663
0.066624 0.234551 0.052400
0.067070 0.063399 0.171948
0.026204 0.994487 0.172278
0.113081 0.331984 0.088896
0.063559 0.076873 0.034298
0.119446 0.431728 0.143578
0.097724 0.788700 0.174924
0.088770 0.504805 0.179363
0.111152 0.333189 0.089644
0.079341 0.745213 0.056306
0.028038 0.096439 0.014351
0.037062 0.903299 0.217728
0.118758 0.621515 0.089109
0.088246 0.441815 0.195977
0.099530 0.530917 0.062368
0.105468 0.338439 0.074457
0.051402 0.650064 0.223397
0.067519 0.102751 0.158681
0.116105 0.682694 0.111983
0.106175 0.463536 0.073634
0.026564 0.035864 0.193622
0.121511 0.683315 0.148872
0.108354 0.210401 0.104245
0.137142 0.482128 0.132471
0.025118 0.537730 0.014174
0.018912 0.398442 0.197210
0.115504 0.411217 0.096723
0.116535 0.832770 0.140291
0.048570 0.405810 0.021789
0.094689 0.090167 0.121178
0.072174 0.798909 0.046067
0.125521 0.651433 0.128041
0.109419 0.128154 0.089682
0.124870 0.481325 0.113795
0.090169 0.316731 0.049589
0.086034 0.238038 0.195363
0.066613 0.130935 0.199627
0.098809 0.899443 0.111193
0.010472 0.621007 0.005025
0.006784 0.689319 0.246458
0.078699 0.114934 0.179883
0.047861 0.287286 0.032723
0.119420 0.460946 0.080967
0.034011 0.639430 0.010726
0.056624 0.641889 0.043776
0.056373 0.333056 0.220316
0.121721 0.399572 0.132608
0.106551 0.140556 0.153531
0.064361 0.422042 0.208676
0.024903 0.022255 0.039845
0.048809 0.853759 0.046899
0.100408 0.589701 0.175988
0.040040 0.570729 0.015144
0.069788 0.518612 0.217019
0.064171 0.047588 0.161293
0.049528 0.084845 0.212012
0.110696 0.359219 0.159473
0.042786 0.677010 0.021343
0.091281 0.237320 0.181681
0.025615 0.846859 0.002029
0.057296 0.843658 0.220116
0.018992 0.958593 0.011792
0.021223 0.003810 0.207851
0.123559 0.802479 0.097744
0.058447 0.120277 0.199297
0.029568 0.373307 0.238619
0.051411 0.870354 0.036854
0.098862 0.602311 0.191374
0.126926 0.507907 0.127049
0.018461 0.946046 0.001685
0.056260 0.334021 0.204056
0.018913 0.386992 0.244585
0.100526 0.845234 0.078714
0.053968 0.945107 0.054132
0.110024 0.712090 0.090024
0.083450 0.504230 0.065388
0.055849 0.947510 0.054566
0.098700 0.466660 0.064836
0.106001 0.560181 0.199834
0.077458 0.921495 0.089718
0.070377 0.942660 0.108676
0.023999 0.978827 0.069680
0.035759 0.020825 0.057831
0.040598 0.038781 0.174803
0.067281 0.090076 0.156800
0.084551 0.200191 0.183877
0.080738 0.138191 0.197994
0.071218 0.786115 0.184605
0.125654 0.668498 0.124257
</DataArray>
</Points>
<PointData>
<DataArray NumberOfComponents='1' type='Int32' Name='ParticleType' format='ascii'>
1
1
1
1
1
1
1
1
1
1
1
1
1
1
1
1
1
1
1
1
1
1
1
1
1
1
1
1
1
1
1
1
1
1
1
1
1
1
1
1
1
1
1
1
1
1
1
1
1
1
1
1
1
1
1
1
1
1
1
1
1
1
1
1
1
1
1
1
1
1
1
1
1
1
1
1
1
1
1
1
1
1
1
1
1
1
1
1
1
1
1
1
1
1
1
1
1
1
1
1
1
1
1
1
1
1
1
1
1
1
1
1
1
1
1
1
1
1
1
1
1
1
1
1
1
1
1
1
1
1
1
1
1
1
1
1
1
1
1
1
1
1
1
1
1
1
1
1
1
1
1
1
1
1
1
1
1
1
1
1
1
1
1
1
1
1
1
1
1
1
1
1
1
1
1
1
1
1
1
1
1
1
1
1
1
1
1
1
1
1
1
1
1
1
1
1
1
1
1
1
1
1
1
1
1
1
1
1
1
1
1
1
1
1
1
1
1
1
1
1
1
1
1
1
1
1
1
1
1
1
1
1
1
1
1
1
1
1
1
1
1
1
1
1
1
1
1
1
1
1
1
1
1
1
1
1
1
1
1
1
1
1
1
1
1
1
1
1
1
1
1
1
1
1
1
1
1
1
1
1
1
1
1
1
1
1
1
1
1
1
1
1
1
1
1
1
1
1
1
1
1
1
1
1
1
1
1
1
1
1
1
1
1
1
1
1
1
1
1
1
1
1
1
1
1
1
1
1
1
1
1
1
1
1
1
1
1
1
1
1
1
1
1
1
1
1
1
1
1
1
1
1
1
1
1
1
1
1
1
1
1
1
1
1
1
1
1
1
1
1
1
1
1
1
1
1
1
1
1
1
1
1
1
1
1
1
1
1
1
1
1
1
1
1
1
1
1
1
1
1
1
1
1
1
1
1
1
1
1
1
1
1
1
1
1
1
1
1
1
1
1
1
1
1
1
1
1
1
1
1
1
1
1
1
1
1
1
1
1
1
1
1
1
1
1
1
1
1
1
1
1
1
1
1
1
1
1
1
1
1
1
1
1
1
1
1
1
1
1
1
1
1
1
1
1
1
1
1
1
1
1
1
1
1
1
1
1
1
1
1
1
1
1
1
1
1
1
1
1
1
</DataArray>
<DataArray NumberOfComponents='1' type='Int32' Name='ParticleID' format='ascii'>
0
1
2
3
4
5
6
7
8
9
10
11
12
13
14
15
16
17
18
19
20
21
22
23
24
25
26
27
28
29
30
31
32
33
34
35
36
37
38
39
40
41
42
43
44
45
46
47
48
49
50
51
52
53
54
55
56
57
58
59
60
61
62
63
64
65
66
67
68
69
70
71
72
73
74
75
76
77
78
79
80
81
82
83
84
85
86
87
88
89
90
91
92
93
94
95
96
97
98
99
100
101
102
103
104
105
106
107
108
109
110
111
112
113
114
115
116
117
118
119
120
121
122
123
124
125
126
127
128
129
130
131
132
133
134
135
136
137
138
139
140
141
142
143
144
145
146
147
148
149
150
151
152
153
154
155
156
157
158
159
160
161
162
163
164
165
166
167
168
169
170
171
172
173
174
175
176
177
178
179
180
181
182
183
184
185
186
187
188
189
190
191
192
193
194
195
196
197
198
199
200
201
202
203
204
205
206
207
208
209
210
211
212
213
214
215
216
217
218
219
220
221
222
223
224
225
226
227
228
229
230
231
232
233
234
235
236
237
238
239
240
241
242
243
244
245
246
247
248
249
250
251
252
253
254
255
256
257
258
259
260
261
262
263
264
265
266
267
268
269
270
271
272
273
274
275
276
277
278
279
280
281
282
283
284
285
286
287
288
289
290
291
292
293
294
295
296
297
298
299
300
301
302
303
304
305
306
307
308
309
310
311
312
313
314
315
316
317
318
319
320
321
322
323
324
325
326
327
328
329
330
331
332
333
334
335
336
337
338
339
340
341
342
343
344
345
346
347
348
349
350
351
352
353
354
355
356
357
358
359
360
361
362
363
364
365
366
367
368
369
370
371
372
373
374
375
376
377
378
379
380
381
382
383
384
385
386
387
388
389
390
391
392
393
394
395
396
397
398
399
400
401
402
403
404
405
406
407
408
409
410
411
412
413
414
415
416
417
418
419
420
421
422
423
424
425
426
427
428
429
430
431
432
433
434
435
436
437
438
439
440
441
442
443
444
445
446
447
448
449
450
451
452
453
454
455
456
457
458
459
460
461
462
463
464
465
466
467
468
469
470
471
472
473
474
475
476
477
478
479
480
481
482
483
484
485
486
487
488
489
490
491
492
493
494
495
496
497
498
499
</DataArray>
<DataArray NumberOfComponents='1' type='Int8' Name='IsActive' format='ascii'>
1
1
1
1
1
1
1
1
1
1
1
1
1
1
1
1
1
1
1
1
1
1
1
1
1
1
1
1
1
1
1
1
1
1
1
1
1
1
1
1
1
1
1
1
1
1
1
1
1
1
1
1
1
1
1
1
1
1
1
1
1
1
1
1
1
1
1
1
1
1
1
1
1
1
1
1
1
1
1
1
1
1
1
1
1
1
1
1
1
1
1
1
1
1
1
1
1
1
1
1
1
1
1
1
1
1
1
1
1
1
1
1
1
1
1
1
1
1
1
1
1
1
1
1
1
1
1
1
1
1
1
1
1
1
1
1
1
1
1
1
1
1
1
1
1
1
1
1
1
1
1
1
1
1
1
1
1
1
1
1
1
1
1
1
1
1
1
1
1
1
1
1
1
1
1
1
1
1
1
1
1
1
1
1
1
1
1
1
1
1
1
1
1
1
1
1
1
1
1
1
1
1
1
1
1
1
1
1
1
1
1
1
1
1
1
1
1
1
1
1
1
1
1
1
1
1
1
1
1
1
1
1
1
1
1
1
1
1
1
1
1
1
1
1
1
1
1
1
1
1
1
1
1
1
1
1
1
1
1
1
1
1
1
1
1
1
1
1
1
1
1
1
1
1
1
1
1
1
1
1
1
1
1
1
1
1
1
1
1
1
1
1
1
1
1
1
1
1
1
1
1
1
1
1
1
1
1
1
1
1
1
1
1
1
1
1
1
1
1
1
1
1
1
1
1
1
1
1
1
1
1
1
1
1
1
1
1
1
1
1
1
1
1
1
1
1
1
1
1
1
1
1
1
1
1
1
1
1
1
1
1
1
1
1
1
1
1
1
1
1
1
1
1
1
1
1
1
1
1
1
1
1
1
1
1
1
1
1
1
1
1
1
1
1
1
1
1
1
1
1
1
1
1
1
1
1
1
1
1
1
1
1
1
1
1
1
1
1
1
1
1
1
1
1
1
1
1
1
1
1
1
1
1
1
1
1
1
1
1
1
1
1
1
1
1
1
1
1
1
1
1
1
1
1
1
1
1
1
1
1
1
1
1
1
1
1
1
1
1
1
1
1
1
1
1
1
1
1
1
1
1
1
1
1
1
1
1
1
1
1
1
1
1
1
1
1
1
1
1
1
</DataArray>
<DataArray NumberOfComponents='1' type='Int32' Name='ParticleTetID' format='ascii'>
39764
46209
100592
22275
67807
92208
10136
10070
39764
22275
25374
97354
41155
34433
33883
66076
36425
5126
100932
7711
3065
101388
42739
97137
6841
2046
330
42038
100560
66024
798
71655
59701
27626
5571
83759
10136
7711
45785
59611
22651
71655
104795
106112
870
83524
94294
10950
5126
54547
1094
80251
42038
100560
84524
101063
79302
98219
5047
17468
29014
1094
106114
57896
61979
85198
95019
35401
22651
21124
43081
98219
5571
16544
80251
88021
38457
12683
23109
61090
99295
23109
48811
7711
102262
34433
31441
46209
104683
10136
77003
7971
870
25374
45259
94137
99903
42640
27685
63910
78578
101500
11214
45259
62590
8642
45259
1062
62590
66553
14981
89612
101139
45259
33883
10225
71636
4249
101245
55933
101233
75879
7464
18011
26808
95629
101978
27626
67807
35818
64192
100092
7971
14220
45259
11253
57128
3063
73298
91813
307
14271
65189
35039
8642
31441
95747
4485
45797
45797
42136
4249
3065
46519
5571
66170
85740
41393
99903
56492
7426
66170
29866
46519
58542
14703
1255
71636
17468
91294
100537
9177
10950
33883
73547
14703
101321
393
26808
50398
29249
55152
8251
81789
101509
30698
48811
97137
46209
14963
7436
18445
3065
32442
71593
10136
3065
85740
101979
2502
45200
58142
92795
47601
17468
1062
100903
61674
16282
91813
870
3063
6841
5047
59611
1359
73459
14271
35039
100605
46519
44576
2502
307
10950
54400
35071
80350
54400
57128
2963
69970
77003
101979
17468
101245
45259
98539
393
47202
35818
54547
105224
57128
67807
44576
39122
62462
58542
99275
39764
870
97137
5571
66076
40656
307
101512
101022
100807
64824
100807
7711
10950
13016
22798
95019
55933
18445
14963
89659
85474
31518
57128
37752
22817
24188
1062
101685
45200
89659
16544
35818
11485
57128
6178
9177
100592
7436
100743
4249
35039
798
84524
34499
105764
21124
6178
307
84524
48523
42888
1660
798
54547
31329
45259
5126
94294
48811
11253
90210
101685
22798
21124
100092
11708
75879
7464
59122
14271
4485
39122
59701
74099
798
101063
28494
1062
58817
100092
79729
106112
9177
101354
2502
45785
60891
98826
45200
59571
65233
21124
95278
94294
22817
101139
46519
30367
58791
35964
35818
101245
73459
21429
40831
73590
7464
1094
95629
102262
16282
17189
65110
106111
85740
55933
100743
16304
1650
44576
77116
49610
95180
1062
330
4249
58542
57128
7464
7711
39277
17468
48846
48523
5571
46175
870
73298
101043
36977
100834
22817
57128
22798
105764
58542
101321
31518
91803
10950
101509
67657
101224
48811
22651
57896
22798
57896
3065
94627
2963
12444
101500
4142
56042
73459
52573
62068
4142
53792
92669
21429
29249
72534
30367
4142
26533
22651
2046
61188
17468
10950
10246
26832
80350
42903
22817
13016
41758
18011
47131
798
14981
330
11253
31501
58542
66076
101354
100054
15040
31779
61188
76206
105764
36425
46209
22798
42903
106111
27685
59122
88021
74716
15033
17928
42038
10225
31501
100560
3617
101224
98033
11214
39277
101063
91378
57896
330
95063
8251
101063
89659
90633
44430
44576
91864
44576
59259
5126
5126
99219
28494
17468
15040
60981
77643
7862
798
</DataArray>
<DataArray NumberOfComponents='3' type='Float32' Name='vels' format='ascii'>
9.445043 -0.071480 -1.241878
23.362849 0.109060 0.164991
2.124023 -0.190688 -0.106276
12.386465 -0.389642 -0.001238
23.159520 -0.379948 0.027157
0.762450 0.029756 0.042782
19.634537 0.363340 -0.304021
11.015716 -0.974189 -1.220406
9.796209 -0.097153 -1.482022
7.614278 -0.225610 0.125602
5.012692 0.197568 0.235760
0.947179 -0.019817 0.060915
10.254610 -0.064794 0.099746
5.896412 0.225341 -0.119140
11.720916 -0.262060 -0.089807
18.738972 -0.934503 0.003686
6.230171 0.113356 0.114937
12.852876 -0.547306 -0.127022
-0.019951 -0.022494 -0.001611
20.119985 0.609421 -0.155561
19.903364 0.623566 -1.873421
0.752034 0.168475 -0.031923
20.435416 -0.362895 -0.229638
3.147619 -0.095604 -0.143066
19.033715 -0.378132 0.010172
23.739342 -0.375628 -0.042505
22.735207 0.025381 -0.093982
22.149541 0.294611 0.273832
1.835141 -0.199200 0.057083
5.065463 -0.343066 -0.114701
21.604568 -0.383624 0.217823
1.220182 0.032798 0.026877
5.138894 -0.379132 -0.357951
15.681249 -0.184181 0.242790
9.880592 -0.597666 0.004384
14.472734 -0.141720 0.339295
20.191379 0.426582 -0.026205
20.146525 1.024965 0.020572
3.335167 -0.050055 -0.043752
14.393401 0.584920 -0.000154
3.310306 0.207948 0.092081
3.710216 0.121857 -0.065224
3.761919 0.120409 -0.076902
3.722640 0.163845 0.148081
23.799365 -0.183518 0.036223
2.425300 0.026074 0.007058
0.798123 0.108540 0.007025
21.598394 -0.259221 0.294456
14.160113 -1.891685 0.391474
15.045831 -0.206330 0.195835
17.720861 -0.566151 0.272165
0.417277 -0.033543 0.020254
23.797487 0.157994 -0.094105
2.878317 -0.326243 0.162130
6.215038 -0.021583 -0.002458
0.047095 -0.017326 -0.010821
5.681747 -0.555738 -0.260795
11.183430 -0.001714 -0.123068
16.717624 -0.617819 0.004142
9.696101 1.389238 -0.264010
8.583620 0.261127 -0.014526
18.083460 -0.632537 0.252085
2.608582 -0.177258 -0.397390
14.050657 -0.106085 0.228050
11.204262 -0.206477 0.915204
4.290187 -0.133122 -0.101774
1.760070 -0.028660 -0.095900
17.576198 -0.210291 -0.046910
8.792240 0.298404 0.178316
18.009310 0.526729 -0.070111
21.719483 0.373935 0.096515
8.624670 0.015997 -0.163969
8.820823 -0.761470 0.150791
20.289458 -0.741520 -0.070292
0.689787 0.013317 -0.005873
0.968757 0.033289 -0.046653
9.655946 -0.145743 -0.187454
18.675744 -0.346164 -0.195745
23.570105 -0.168937 0.178064
21.670369 -0.128410 0.129864
0.495824 0.025560 -0.023416
23.017604 -0.172779 0.226309
15.779427 -0.143826 -0.167224
19.152850 0.251636 -0.193161
23.139988 -0.392363 -0.062935
6.589121 0.251390 -0.186101
2.229157 -0.204955 -0.467891
23.981306 0.130693 0.113398
15.027225 1.211222 0.350320
20.097998 0.385145 -0.422699
4.766738 -0.026712 -0.083315
18.569341 -0.587982 -0.026153
23.348385 -0.181479 -0.044513
3.654836 0.120989 0.106285
23.326241 0.117228 0.114962
3.817408 0.042673 0.226564
0.049454 0.054313 -0.014140
12.408360 -0.296390 0.233606
10.819211 -0.775779 0.606670
16.310370 0.209842 0.328763
13.600122 0.328174 -0.256059
1.058636 -0.061162 -0.183774
22.611506 -0.399554 -0.075622
21.987854 0.049572 0.376187
20.207894 -0.450828 -0.193522
20.241928 -0.235539 0.374760
23.319952 0.073952 0.288090
22.890821 0.337027 -0.116536
22.009266 -0.480223 -0.073233
6.020547 0.087817 0.081556
18.076822 0.330619 -0.242448
21.420504 -0.000920 0.361793
2.343061 -0.480778 -0.144319
23.626679 -0.017755 0.043754
11.868637 -0.266229 -0.343178
12.754873 -0.287817 0.408865
22.545388 -0.131622 0.078436
16.200969 -0.510193 0.239320
0.705813 -0.026959 -0.152952
20.618769 0.006712 -0.279058
1.305359 0.319618 0.100333
1.036112 0.045589 0.022101
12.003688 -1.261637 0.135115
11.906899 1.452778 0.643377
14.202704 -0.168109 0.170469
7.310056 -0.799473 0.480066
22.648604 0.448790 0.017424
16.434929 -0.183663 0.386850
22.946252 -0.424174 -0.025431
4.380042 0.136997 -0.040225
13.647669 1.019142 -1.963510
-0.069109 0.018801 -0.004973
18.828883 -0.295084 0.158193
14.215270 0.235022 -0.024661
22.265756 0.011585 0.137287
13.990666 0.239906 -0.260773
14.758516 0.082151 0.182923
23.949397 -0.199219 0.080808
3.488591 -0.192401 0.267666
2.354451 -0.008907 0.071015
23.809476 -0.090494 0.000096
17.764458 -0.403372 0.128270
13.626842 0.188756 -0.086783
23.160940 0.209267 0.034597
21.823537 -0.341754 0.175573
2.758150 -0.269222 -0.548486
4.125961 0.275844 0.096525
19.710259 -0.300932 0.271534
15.387420 0.311073 -0.154158
9.165737 0.052775 -0.206384
14.295820 0.900704 -0.470536
12.990388 -0.749446 -0.040879
23.535208 0.356525 0.074845
22.832003 -0.361320 0.092646
8.771209 -0.348297 0.163688
7.833612 -0.685608 -0.440165
3.879412 0.230131 -0.163978
3.337946 0.023966 -0.084579
0.604167 0.017654 -0.006923
9.853841 -0.195896 -0.404172
19.217412 -0.269738 0.415222
5.682871 0.002084 0.021695
21.746484 -0.973626 -0.052465
20.355440 -0.420030 -0.204748
6.563158 0.652848 -0.404811
20.417350 -0.249457 0.251376
17.205266 -0.598419 0.130439
21.440092 -0.136431 -0.149651
6.545204 0.101933 0.010602
2.311987 0.005078 -0.102775
2.849870 -0.135471 -0.020936
17.538308 0.558245 -0.003542
19.893409 -0.269849 0.289316
11.370251 -0.261273 -0.052189
22.537035 0.060416 0.154197
19.127021 -0.173299 0.382512
0.905581 -0.019632 0.018284
23.842512 -0.099914 0.073782
12.381500 -0.156246 0.299488
19.050938 -0.255653 -0.276091
20.561962 -0.150802 0.040367
11.232252 -0.531489 -0.139641
9.539661 0.115207 -0.096677
10.117423 0.005882 0.031852
0.505303 -0.002327 0.075537
15.083365 -1.076453 0.282142
15.778722 -0.148055 -0.139047
6.701895 -0.828771 -0.123828
23.309369 0.128001 0.141967
4.197280 -0.147010 -0.008422
22.761878 -0.457971 -0.053077
14.489376 0.090762 -0.272693
22.453999 0.676202 -0.315218
19.977925 -0.230477 -0.281363
0.744841 -0.031298 0.039283
19.597133 0.414521 -0.239256
23.582565 0.377573 -0.045150
8.435714 0.717146 -0.240055
21.600932 0.485824 0.204866
7.632114 0.362621 -0.080486
22.950698 -0.409148 -0.160823
19.146268 -0.395178 -0.184775
5.333433 -0.530817 0.247400
17.022116 0.367585 -0.271283
4.449672 0.096602 -0.108308
23.480322 0.331355 -0.029425
1.230490 0.166562 -0.043646
18.323935 -0.436667 0.368280
16.810435 0.049628 -0.126556
2.651811 0.026019 -0.158939
23.850264 -0.204239 0.082013
23.953114 -0.213003 0.098632
20.932318 -0.377190 0.099240
16.810059 -0.602577 -0.006562
12.143000 0.809360 0.354971
21.488872 0.545244 -0.121905
22.735442 0.114437 -0.278598
10.735826 -0.208296 -0.071130
20.034764 0.312371 0.299917
2.662436 0.358076 0.321418
21.867841 -0.349482 0.183849
17.813336 0.051740 -0.415157
7.938405 0.702981 0.420362
23.482813 -0.068647 0.128603
23.375575 -0.335720 0.160643
1.046511 0.126349 0.008240
17.800382 -0.114778 2.497970
4.557511 0.014258 0.262238
4.504627 0.283948 0.329882
14.571983 0.078796 0.167890
10.019038 0.219152 -0.313106
1.214697 -0.045644 0.016155
2.417797 0.012260 -0.071808
23.018312 0.593206 0.089643
11.961030 1.104749 -0.640007
0.521083 -0.035603 -0.129841
22.931549 0.080936 0.156159
14.201907 -0.185734 1.290737
23.853862 -0.094991 0.018326
5.151681 -0.177731 0.055163
1.002213 0.052664 0.045766
11.856452 -0.114416 0.202766
8.739930 0.031269 -0.212881
13.185644 0.110087 0.276088
23.516978 -0.409624 -0.013979
10.080724 -0.001367 -0.253734
10.521084 -0.173858 0.441982
3.669176 -0.139093 -0.188251
10.344616 1.221058 -1.233666
2.405849 0.140170 0.074892
5.787587 -0.072510 0.151206
23.700454 -0.225240 0.001480
0.194667 0.014255 0.018678
10.914211 -1.213447 0.172699
17.105398 -0.532735 -0.032000
5.808502 0.011485 0.006849
23.249142 -0.077688 0.288841
0.569984 -0.046995 0.153950
2.661753 -0.170519 0.000327
0.746674 0.020556 -0.072068
22.575111 -0.060098 0.200990
2.570116 -0.012663 -0.072524
18.575987 0.452610 -0.191838
22.502289 -0.317312 0.228362
20.607363 -0.929410 -0.158339
19.845731 0.628828 -0.125947
4.522356 0.086299 0.048185
23.605609 0.005660 -0.031979
20.426445 0.358942 1.043261
5.960221 -0.288720 -0.293318
18.187122 -0.724166 -0.038125
0.487516 0.032062 -0.017773
21.025981 0.181212 -0.168467
5.954665 0.032165 0.060178
23.599806 0.166269 -0.086075
21.140599 0.057944 -0.285348
19.862625 0.090376 -0.237784
22.704631 0.569845 -0.175345
12.976049 -0.589401 0.103605
20.310859 -0.312437 -0.328148
16.362326 -0.264076 -0.291274
19.066251 -0.494734 -0.150719
7.081916 0.458188 0.077940
14.498278 -2.033538 0.350217
19.403964 0.124410 0.319570
3.838760 0.192773 -0.082275
15.026260 0.615739 -0.014966
0.907230 -0.146450 0.006166
18.840405 -0.542211 -0.312420
0.401478 -0.000129 0.035264
14.264148 -0.488438 0.227016
21.337186 0.319317 0.259997
23.592537 -0.233755 -0.091993
5.194982 -0.016871 0.152622
4.079563 0.710049 0.430537
8.004484 -0.149131 -0.028820
16.403974 0.228770 0.087034
4.402340 0.175669 -0.127801
23.977602 -0.041363 -0.183382
3.660266 0.011498 0.084676
21.992770 -0.052532 -1.173346
19.244070 0.403545 -0.248173
12.101535 -0.380947 0.296391
23.405271 -0.281732 0.102010
12.857585 -0.166284 -0.190022
12.466317 0.344371 0.063098
23.307608 0.064426 0.036485
11.068404 -0.216946 0.011857
0.015568 -0.012612 -0.003330
10.596699 -0.343147 -0.073352
17.100813 0.354857 -0.413738