<VTKFile type='UnstructuredGrid' version='1.0' byte_order='LittleEndian' header_type='UInt64'>
<UnstructuredGrid>
<Piece NumberOfCells='500' NumberOfPoints='500'>
<Points>
<DataArray NumberOfComponents='3' type='Float32' Name='Position' format='ascii'>
0.723997 0.632774 0.226627
1.815785 0.305742 0.117971
0.164231 0.979943 0.221708
1.269501 0.889365 0.184628
1.947526 0.774091 0.106172
0.090164 0.192185 0.247765
1.654081 0.187290 0.074978
0.878225 0.845843 0.209502
0.718456 0.636197 0.224147
0.616609 0.778250 0.227754
0.628840 0.236367 0.035092
0.131211 0.007186 0.058649
0.709410 0.548194 0.219175
0.399094 0.254058 0.236930
0.679709 0.711623 0.215176
1.572865 0.929143 0.150286
0.807417 0.278526 0.204335
0.848099 0.941300 0.161520
0.365579 0.792709 0.218783
1.552630 0.071580 0.113578
1.939706 0.238179 0.145614
0.013608 0.100012 0.236745
1.708323 0.788358 0.078357
0.146529 0.991310 0.150299
1.619276 0.916809 0.129476
1.934442 0.747953 0.118420
1.006156 0.481606 0.098490
1.764214 0.272997 0.160144
0.032941 0.846974 0.004151
0.458116 0.935816 0.219262
1.883890 0.724371 0.150870
0.254756 0.311596 0.241915
0.491584 0.961289 0.184221
1.281586 0.831910 0.181679
0.702528 0.961497 0.128453
0.887161 0.666353 0.201699
1.726045 0.208566 0.076471
1.750282 0.105910 0.123228
0.823593 0.604349 0.045758
0.870611 0.071854 0.067740
0.559778 0.086639 0.216155
0.358820 0.289989 0.239226
0.216736 0.293236 0.006096
0.340256 0.038208 0.031540
1.893413 0.715140 0.115341
0.046375 0.524967 0.007707
0.027564 0.126513 0.021426
1.794501 0.764403 0.166277
0.861304 0.943962 0.106247
0.935926 0.745899 0.199115
1.554938 0.904674 0.171638
0.022235 0.668563 0.223719
1.890304 0.288438 0.131071
0.036754 0.848851 0.003645
0.588754 0.477158 0.227361
0.768398 0.362266 0.206905
0.439588 0.857882 0.230489
0.830450 0.432407 0.040154
1.345374 0.947899 0.119651
0.512230 0.046845 0.165844
0.580174 0.244484 0.027215
1.627101 0.889772 0.173845
0.117239 0.992933 0.192631
1.047742 0.792667 0.191536
0.913662 0.739317 0.044142
0.122280 0.723093 0.003982
0.613651 0.382229 0.029617
1.467727 0.941425 0.128373
0.723491 0.096012 0.204629
1.368531 0.058572 0.156151
1.774509 0.138852 0.156944
0.699194 0.462416 0.026808
0.651642 0.965029 0.115036
1.697489 0.880380 0.087126
0.041855 0.652573 0.243447
0.633565 0.585347 0.029130
1.163411 0.834963 0.055289
1.564337 0.821586 0.068444
1.806615 0.727582 0.155681
1.673800 0.719329 0.151928
0.013650 0.206126 0.215200
1.736065 0.706296 0.150887
0.969613 0.943690 0.067155
1.748797 0.106322 0.120650
1.973990 0.790265 0.123382
0.363048 0.253852 0.239136
0.415542 0.965926 0.185486
1.807368 0.284139 0.135145
1.259713 0.045549 0.105045
1.670447 0.187377 0.077360
0.565808 0.590899 0.021668
1.595161 0.924390 0.124735
1.869414 0.697099 0.137159
0.801219 0.209600 0.039261
1.761937 0.300671 0.106143
0.076861 0.613311 0.247748
0.021089 0.558821 0.248240
1.253462 0.889162 0.195717
0.900239 0.877287 0.048522
0.669661 0.135124 0.201241
0.955492 0.163227 0.046829
0.026968 0.985806 0.174545
1.877790 0.841212 0.101976
1.591691 0.259361 0.083015
1.931549 0.819486 0.134096
1.608988 0.805932 0.178063
1.640482 0.282474 0.095208
1.971609 0.211745 0.124983
1.938492 0.817839 0.130005
0.733457 0.044861 0.116591
1.533112 0.068913 0.091829
0.995493 0.317312 0.181726
0.187691 0.908148 0.241227
1.605666 0.278561 0.103573
0.707790 0.715532 0.214623
0.929558 0.796772 0.041153
1.639879 0.723410 0.095059
1.337329 0.940330 0.172298
0.024493 0.993604 0.221753
0.989911 0.494005 0.078371
0.073456 0.043208 0.005579
0.672714 0.303818 0.212425
0.831852 0.938122 0.154953
1.199677 0.037755 0.122810
1.011176 0.799734 0.187743
0.573433 0.900229 0.028574
1.906120 0.185363 0.135554
1.120993 0.816495 0.191387
1.909876 0.806571 0.100053
0.771535 0.106000 0.038100
0.560369 0.163732 0.225637
0.013754 0.503258 0.223743
1.565586 0.919955 0.166724
0.992175 0.047804 0.148884
1.454903 0.203256 0.075930
1.072377 0.164540 0.051920
0.923342 0.347881 0.198917
1.846647 0.693444 0.126585
0.322815 0.984876 0.100042
0.443667 0.490755 0.234375
1.690377 0.690529 0.120030
0.990289 0.814505 0.049721
0.943106 0.243005 0.040408
1.906084 0.267373 0.143878
1.864293 0.778680 0.159865
0.392698 0.968957 0.190490
0.376142 0.018354 0.101334
1.613611 0.835447 0.179339
0.929492 0.218320 0.046874
0.875881 0.257948 0.038805
1.365601 0.066558 0.170687
0.788187 0.888570 0.206316
1.948103 0.235735 0.132224
1.932495 0.793467 0.144403
0.655179 0.960841 0.088587
0.553341 0.960001 0.173172
0.407677 0.038018 0.161573
0.739382 0.416578 0.034636
0.033688 0.568016 0.248686
0.688579 0.570999 0.224845
1.438302 0.833029 0.182167
0.610330 0.953291 0.175545
1.753710 0.861058 0.092574
1.922218 0.802785 0.114088
0.598248 0.136607 0.224231
1.514864 0.829882 0.177159
1.383252 0.907379 0.182569
1.445012 0.785774 0.092371
0.577536 0.046562 0.168209
0.463872 0.032758 0.168533
0.039186 0.987687 0.128386
1.316889 0.087815 0.064041
1.943384 0.757448 0.135056
0.728094 0.716299 0.215913
1.466420 0.211711 0.155747
1.401957 0.824170 0.181795
0.039416 0.985252 0.005417
1.466450 0.775202 0.123050
1.287952 0.839498 0.185580
1.940196 0.761110 0.109145
1.724842 0.721367 0.096615
0.638498 0.866990 0.042093
0.787141 0.307232 0.208503
0.724727 0.945021 0.172620
0.021441 0.015490 0.078064
1.279810 0.947877 0.089263
0.943210 0.938773 0.072175
0.037751 0.988472 0.138759
1.765003 0.308184 0.126472
0.414122 0.784244 0.238125
1.809954 0.840140 0.092751
1.367879 0.172921 0.061488
1.894551 0.218608 0.150573
1.619520 0.793149 0.075218
0.069249 0.879513 0.246464
1.646300 0.171286 0.074901
1.962569 0.220039 0.125546
0.496975 0.043873 0.158632
1.823781 0.182164 0.165129
0.736383 0.117456 0.035920
1.918361 0.753489 0.101643
1.684615 0.815416 0.071768
0.431232 0.900577 0.019179
1.176532 0.133371 0.054850
0.454473 0.031352 0.189433
1.974252 0.230781 0.118985
0.018423 0.158701 0.234644
1.647658 0.880235 0.174555
1.482054 0.061428 0.145346
0.312442 0.477422 0.241843
1.878846 0.720173 0.131219
1.861730 0.704866 0.127110
1.781059 0.874936 0.128072
1.392217 0.947739 0.124763
0.674186 0.086683 0.044901
1.924640 0.220727 0.102783
1.611218 0.257742 0.157062
1.054017 0.820511 0.062627
1.706482 0.233805 0.174044
0.114103 0.026582 0.023006
1.860333 0.791703 0.158352
0.963506 0.353192 0.061815
0.620770 0.141826 0.025586
1.548119 0.751663 0.106251
1.889375 0.759713 0.144559
0.639752 0.045751 0.128429
1.481838 0.804039 0.072843
0.476900 0.535300 0.015586
0.457444 0.025072 0.097935
0.850491 0.383544 0.203190
1.104355 0.115766 0.052458
0.039279 0.708331 0.240074
0.405623 0.597012 0.014066
1.927020 0.180071 0.137422
0.729917 0.058655 0.168263
0.212575 0.969173 0.215221
1.702879 0.286629 0.096454
0.772557 0.627023 0.034451
1.640740 0.718743 0.132194
0.422791 0.930520 0.206005
0.422543 0.111638 0.021455
0.836045 0.678602 0.209297
1.167278 0.198855 0.064058
1.104028 0.198190 0.186049
1.958073 0.773656 0.111373
0.938199 0.500431 0.063123
0.893582 0.717325 0.042846
0.320406 0.979988 0.159343
0.597967 0.114580 0.213982
0.302972 0.211680 0.024300
0.891758 0.703479 0.201237
1.893535 0.718691 0.142321
0.509874 0.976622 0.141733
0.727832 0.952909 0.114955
1.451470 0.945197 0.136871
0.590281 0.408646 0.228646
1.023395 0.699711 0.097788
0.032989 0.994903 0.045751
0.152208 0.792364 0.005342
0.009227 0.621457 0.215476
1.724181 0.718284 0.139387
0.034899 0.622100 0.243527
1.745689 0.112436 0.114526
1.843214 0.758069 0.154668
1.794499 0.867865 0.152249
1.671534 0.097166 0.148694
0.348403 0.394236 0.013349
1.023354 0.302296 0.108553
1.566008 0.213737 0.073407
0.455532 0.780036 0.231640
1.557401 0.919202 0.089492
0.036690 0.189811 0.013596
1.847299 0.265211 0.093001
1.414433 0.178408 0.173677
1.863477 0.281576 0.111384
1.619474 0.251581 0.080759
1.355404 0.194610 0.072775
1.922068 0.194104 0.108643
1.315711 0.950761 0.103962
1.665582 0.800245 0.077787
1.480397 0.926648 0.081562
1.662225 0.894245 0.089756
0.754774 0.103009 0.038267
0.910920 0.946069 0.104905
0.930513 0.309030 0.198519
0.700164 0.179932 0.029289
1.276341 0.065880 0.068761
0.090141 0.964775 0.238605
1.650779 0.877649 0.076134
0.378412 0.743637 0.031523
0.761077 0.883428 0.211736
1.692220 0.232424 0.165261
1.925859 0.732926 0.130783
0.724649 0.476815 0.211034
0.488940 0.065289 0.034086
0.862628 0.708784 0.038153
1.426089 0.056055 0.148525
0.799981 0.163743 0.037518
1.019476 0.685679 0.110658
0.647962 0.485643 0.227377
0.987990 0.563619 0.167485
1.752442 0.130279 0.095405
0.957301 0.876566 0.208034
1.923267 0.751458 0.140109
0.855171 0.689157 0.214723
0.929702 0.200605 0.043016
1.714032 0.291717 0.101821
0.774192 0.956021 0.124048
0.423013 0.143357 0.028901
0.749766 0.935399 0.070217
1.206972 0.137774 0.059478
0.527671 0.488126 0.017470
0.757302 0.934597 0.080411
1.770818 0.118200 0.134991
1.229329 0.047466 0.152160
0.015983 0.508032 0.235090
0.910613 0.247142 0.042784
0.520804 0.313061 0.233008
1.099691 0.953474 0.117279
1.658690 0.740323 0.168051
0.919549 0.777746 0.043143
1.519558 0.852377 0.184511
0.808562 0.648423 0.036056
0.318570 0.980960 0.196334
0.039398 0.425233 0.017137
1.890568 0.721961 0.146959
0.028877 0.374001 0.238876
0.544798 0.061585 0.038284
1.968990 0.221326 0.120121
1.387420 0.179555 0.179693
0.012828 0.515409 0.242502
0.372554 0.436640 0.228368
0.366013 0.036763 0.043790
1.330537 0.058988 0.075988
0.009643 0.605924 0.000383
1.190784 0.054779 0.076275
0.805986 0.576870 0.043812
0.792923 0.658180 0.032749
0.007708 0.280609 0.235728
1.893637 0.754264 0.096738
1.488794 0.866518 0.189664
0.777280 0.547454 0.042397
1.318243 0.056108 0.170160
0.458277 0.964255 0.068408
0.023943 0.131684 0.025037
1.558110 0.228183 0.074977
0.017933 0.890296 0.249629
1.941957 0.800442 0.125549
1.005623 0.691116 0.068148
0.867456 0.591127 0.201491
1.723808 0.236689 0.173822
0.763663 0.097476 0.043664
0.019073 0.982500 0.216488
1.645716 0.274922 0.140597
0.540188 0.903158 0.225636
1.160125 0.775272 0.079615
0.157811 0.009069 0.207175
1.201022 0.955081 0.138409
0.870163 0.879292 0.205686
0.725441 0.904554 0.044533
1.969269 0.792101 0.124594
1.463627 0.053406 0.137720
0.424543 0.953495 0.201759
1.847487 0.800021 0.086478
0.310851 0.027451 0.041628
0.334557 0.021156 0.164083
0.987684 0.439313 0.081911
0.018119 0.746438 0.010902
1.637028 0.128602 0.078297
0.803168 0.227389 0.214363
0.953936 0.494143 0.064796
0.029521 0.533537 0.227480
1.711054 0.256325 0.166227
0.651682 0.866424 0.035758
1.940262 0.244077 0.114318
1.007197 0.450212 0.110120
1.186748 0.940290 0.182676
0.700794 0.128282 0.216495
1.033613 0.230860 0.188918
0.856903 0.948060 0.141005
1.406013 0.059375 0.102317
1.141683 0.066700 0.186271
0.377856 0.036158 0.211676
1.420684 0.065184 0.174857
1.085259 0.250387 0.145698
0.500097 0.956565 0.087992
1.860546 0.807909 0.158168
1.896278 0.719589 0.135426
0.409237 0.978240 0.093678
0.034531 0.000021 0.183829
0.933951 0.921513 0.057483
0.322587 0.484133 0.008766
1.821682 0.297420 0.103897
1.086134 0.215187 0.188919
1.776869 0.121413 0.133415
0.708667 0.656526 0.028202
0.750877 0.106565 0.209342
0.066673 0.982585 0.021715
1.676492 0.231467 0.079265
0.679268 0.441599 0.220047
1.704166 0.764427 0.167328
0.016016 0.013992 0.082648
1.800918 0.149518 0.096922
0.104564 0.958442 0.017398
1.042232 0.946065 0.076067
0.661091 0.096258 0.207183
0.867240 0.662777 0.206194
1.671341 0.095124 0.149239
1.061577 0.784963 0.193799
1.933370 0.243335 0.122109
0.792588 0.442551 0.207359
1.068670 0.130253 0.049808
0.721720 0.055006 0.174302
0.193039 0.989533 0.169814
1.795009 0.252448 0.089534
0.539784 0.073418 0.033548
1.683882 0.297410 0.143112
1.570681 0.878870 0.176313
0.970244 0.512249 0.181954
1.817658 0.255721 0.089688
1.146281 0.876461 0.053280
0.387986 0.097289 0.018609
0.520292 0.906039 0.218759
1.748239 0.727641 0.087992
0.897648 0.371233 0.196836
0.962150 0.634715 0.059693
1.665593 0.223903 0.074228
0.723370 0.673369 0.223960
1.121249 0.056706 0.161751
1.923137 0.744008 0.111483
1.015815 0.282620 0.071657
0.445239 0.035519 0.193531
1.868545 0.759404 0.149203
1.859994 0.163010 0.105143
1.009072 0.338139 0.133433
0.517849 0.539680 0.015271
0.890686 0.313104 0.199944
1.707694 0.286803 0.094571
1.811547 0.866680 0.141543
0.618544 0.399145 0.024060
1.332401 0.045324 0.120468
0.960748 0.867840 0.044123
1.916374 0.719136 0.128261
1.530310 0.069653 0.089920
0.997879 0.382712 0.112273
1.027456 0.177869 0.048686
1.239698 0.111505 0.196487
0.918056 0.092580 0.201498
1.386797 0.948977 0.112097
0.159283 0.617887 0.003703
0.062733 0.686720 0.248525
1.089834 0.062846 0.182205
0.718415 0.261485 0.030673
1.172792 0.220261 0.076443
0.095673 0.638890 0.011988
0.854682 0.708414 0.043314
0.715471 0.304842 0.220995
1.799211 0.307009 0.132301
1.637683 0.088875 0.153699
0.811735 0.385985 0.209770
0.294461 0.024736 0.040925
0.876911 0.886408 0.044785
1.326047 0.801364 0.177589
0.039720 0.572758 0.015054
0.751622 0.524847 0.218303
0.626872 0.042949 0.160393
0.577586 0.078538 0.212841
1.809749 0.279687 0.159650
0.634685 0.690408 0.020055
1.446501 0.115548 0.182280
0.039942 0.849166 0.000800
0.646081 0.854657 0.221481
0.084209 0.953032 0.012954
0.086233 0.003549 0.208498
1.845319 0.845634 0.099467
0.840188 0.096505 0.199831
0.028498 0.374466 0.238797
0.678000 0.880120 0.035633
1.131586 0.805509 0.194265
1.014369 0.523576 0.126206
0.034211 0.942831 0.001521
0.916870 0.239186 0.205834
0.018890 0.387503 0.244600
1.604259 0.899529 0.078019
0.520834 0.947966 0.053014
1.843573 0.773583 0.090111
0.948641 0.497021 0.062696
0.518426 0.951945 0.052509
0.960242 0.359236 0.061229
0.928416 0.649925 0.201545
0.733524 0.931073 0.090102
0.757230 0.951148 0.109032
0.341231 0.977103 0.072573
0.321918 0.020467 0.057340
0.476996 0.036579 0.174940
1.213986 0.048492 0.159578
1.325096 0.100610 0.184902
0.841188 0.110802 0.199833
1.293629 0.898562 0.185522
1.950213 0.739628 0.125515
</DataArray>
</Points>
<PointData>
<DataArray NumberOfComponents='1' type='Int32' Name='ParticleType' format='ascii'>
1
1
1
1
1
1
1
1
1
1
1
1
1
1
1
1
1
1
1
1
1
1
1
1
1
1
1
1
1
1
1
1
1
1
1
1
1
1
1
1
1
1
1
1
1
1
1
1
1
1
1
1
1
1
1
1
1
1
1
1
1
1
1
1
1
1
1
1
1
1
1
1
1
1
1
1
1
1
1
1
1
1
1
1
1
1
1
1
1
1
1
1
1
1
1
1
1
1
1
1
1
1
1
1
1
1
1
1
1
1
1
1
1
1
1
1
1
1
1
1
1
1
1
1
1
1
1
1
1
1
1
1
1
1
1
1
1
1
1
1
1
1
1
1
1
1
1
1
1
1
1
1
1
1
1
1
1
1
1
1
1
1
1
1
1
1
1
1
1
1
1
1
1
1
1
1
1
1
1
1
1
1
1
1
1
1
1
1
1
1
1
1
1
1
1
1
1
1
1
1
1
1
1
1
1
1
1
1
1
1
1
1
1
1
1
1
1
1
1
1
1
1
1
1
1
1
1
1
1
1
1
1
1
1
1
1
1
1
1
1
1
1
1
1
1
1
1
1
1
1
1
1
1
1
1
1
1
1
1
1
1
1
1
1
1
1
1
1
1
1
1
1
1
1
1
1
1
1
1
1
1
1
1
1
1
1
1
1
1
1
1
1
1
1
1
1
1
1
1
1
1
1
1
1
1
1
1
1
1
1
1
1
1
1
1
1
1
1
1
1
1
1
1
1
1
1
1
1
1
1
1
1
1
1
1
1
1
1
1
1
1
1
1
1
1
1
1
1
1
1
1
1
1
1
1
1
1
1
1
1
1
1
1
1
1
1
1
1
1
1
1
1
1
1
1
1
1
1
1
1
1
1
1
1
1
1
1
1
1
1
1
1
1
1
1
1
1
1
1
1
1
1
1
1
1
1
1
1
1
1
1
1
1
1
1
1
1
1
1
1
1
1
1
1
1
1
1
1
1
1
1
1
1
1
1
1
1
1
1
1
1
1
1
1
1
1
1
1
1
1
1
1
1
1
1
1
1
1
1
1
1
1
1
1
1
1
1
1
1
1
1
1
1
1
1
1
1
1
1
1
1
1
1
1
1
1
1
1
1
1
1
1
1
1
1
1
1
1
1
1
</DataArray>
<DataArray NumberOfComponents='1' type='Int32' Name='ParticleID' format='ascii'>
0
1
2
3
4
5
6
7
8
9
10
11
12
13
14
15
16
17
18
19
20
21
22
23
24
25
26
27
28
29
30
31
32
33
34
35
36
37
38
39
40
41
42
43
44
45
46
47
48
49
50
51
52
53
54
55
56
57
58
59
60
61
62
63
64
65
66
67
68
69
70
71
72
73
74
75
76
77
78
79
80
81
82
83
84
85
86
87
88
89
90
91
92
93
94
95
96
97
98
99
100
101
102
103
104
105
106
107
108
109
110
111
112
113
114
115
116
117
118
119
120
121
122
123
124
125
126
127
128
129
130
131
132
133
134
135
136
137
138
139
140
141
142
143
144
145
146
147
148
149
150
151
152
153
154
155
156
157
158
159
160
161
162
163
164
165
166
167
168
169
170
171
172
173
174
175
176
177
178
179
180
181
182
183
184
185
186
187
188
189
190
191
192
193
194
195
196
197
198
199
200
201
202
203
204
205
206
207
208
209
210
211
212
213
214
215
216
217
218
219
220
221
222
223
224
225
226
227
228
229
230
231
232
233
234
235
236
237
238
239
240
241
242
243
244
245
246
247
248
249
250
251
252
253
254
255
256
257
258
259
260
261
262
263
264
265
266
267
268
269
270
271
272
273
274
275
276
277
278
279
280
281
282
283
284
285
286
287
288
289
290
291
292
293
294
295
296
297
298
299
300
301
302
303
304
305
306
307
308
309
310
311
312
313
314
315
316
317
318
319
320
321
322
323
324
325
326
327
328
329
330
331
332
333
334
335
336
337
338
339
340
341
342
343
344
345
346
347
348
349
350
351
352
353
354
355
356
357
358
359
360
361
362
363
364
365
366
367
368
369
370
371
372
373
374
375
376
377
378
379
380
381
382
383
384
385
386
387
388
389
390
391
392
393
394
395
396
397
398
399
400
401
402
403
404
405
406
407
408
409
410
411
412
413
414
415
416
417
418
419
420
421
422
423
424
425
426
427
428
429
430
431
432
433
434
435
436
437
438
439
440
441
442
443
444
445
446
447
448
449
450
451
452
453
454
455
456
457
458
459
460
461
462
463
464
465
466
467
468
469
470
471
472
473
474
475
476
477
478
479
480
481
482
483
484
485
486
487
488
489
490
491
492
493
494
495
496
497
498
499
</DataArray>
<DataArray NumberOfComponents='1' type='Int8' Name='IsActive' format='ascii'>
1
1
1
1
1
1
1
1
1
1
1
1
1
1
1
1
1
1
1
1
1
1
1
1
1
1
1
1
1
1
1
1
1
1
1
1
1
1
1
1
1
1
1
1
1
1
1
1
1
1
1
1
1
1
1
1
1
1
1
1
1
1
1
1
1
1
1
1
1
1
1
1
1
1
1
1
1
1
1
1
1
1
1
1
1
1
1
1
1
1
1
1
1
1
1
1
1
1
1
1
1
1
1
1
1
1
1
1
1
1
1
1
1
1
1
1
1
1
1
1
1
1
1
1
1
1
1
1
1
1
1
1
1
1
1
1
1
1
1
1
1
1
1
1
1
1
1
1
1
1
1
1
1
1
1
1
1
1
1
1
1
1
1
1
1
1
1
1
1
1
1
1
1
1
1
1
1
1
1
1
1
1
1
1
1
1
1
1
1
1
1
1
1
1
1
1
1
1
1
1
1
1
1
1
1
1
1
1
1
1
1
1
1
1
1
1
1
1
1
1
1
1
1
1
1
1
1
1
1
1
1
1
1
1
1
1
1
1
1
1
1
1
1
1
1
1
1
1
1
1
1
1
1
1
1
1
1
1
1
1
1
1
1
1
1
1
1
1
1
1
1
1
1
1
1
1
1
1
1
1
1
1
1
1
1
1
1
1
1
1
1
1
1
1
1
1
1
1
1
1
1
1
1
1
1
1
1
1
1
1
1
1
1
1
1
1
1
1
1
1
1
1
1
1
1
1
1
1
1
1
1
1
1
1
1
1
1
1
1
1
1
1
1
1
1
1
1
1
1
1
1
1
1
1
1
1
1
1
1
1
1
1
1
1
1
1
1
1
1
1
1
1
1
1
1
1
1
1
1
1
1
1
1
1
1
1
1
1
1
1
1
1
1
1
1
1
1
1
1
1
1
1
1
1
1
1
1
1
1
1
1
1
1
1
1
1
1
1
1
1
1
1
1
1
1
1
1
1
1
1
1
1
1
1
1
1
1
1
1
1
1
1
1
1
1
1
1
1
1
1
1
1
1
1
1
1
1
1
1
1
1
1
1
1
1
1
1
1
1
1
1
1
1
1
1
1
1
1
1
1
1
1
1
1
1
1
1
1
1
1
1
1
1
1
1
1
1
1
1
1
</DataArray>
<DataArray NumberOfComponents='1' type='Int32' Name='ParticleTetID' format='ascii'>
68540
27912
79807
51762
4241
82905
39348
60741
68540
95247
9048
74251
64911
83792
31252
104887
57789
66583
30832
55088
3652
101388
15497
52957
5907
20072
68926
23355
100560
77828
72874
18573
84429
35938
29839
26616
84076
23805
30799
56828
99140
86849
21155
17383
74968
83524
94294
87816
50021
54254
22580
80251
35427
100560
15105
6569
21944
47691
95236
65951
3387
16683
25514
10403
14520
65728
51598
79964
36906
34955
77418
87624
66376
29626
80251
44700
40250
81213
54322
24512
99295
9337
34132
23805
102508
77792
8604
13553
25683
88955
6430
104887
70403
52372
66727
64197
99903
53027
32957
29532
76667
101500
2873
39306
28400
83697
14908
98764
103014
8416
24194
79405
66540
37623
13055
37152
68081
64592
101245
62993
100821
11286
64385
100494
103826
102318
24740
51805
21007
65292
40346
100092
104885
708
19288
63620
30853
62250
74954
29392
14015
83987
42679
44599
4523
10409
75679
19857
91722
39716
34955
46721
3652
4241
59492
48228
26208
970
99903
29411
52396
60454
20544
21007
87019
19389
15416
6580
53426
105714
97137
3226
4241
13055
90058
42358
101445
53222
38341
4241
85803
61329
57789
14533
101509
21487
32759
97137
66727
56918
27254
66498
46533
62
39533
18773
83214
23527
83261
54905
20072
6535
95663
104918
105715
83214
100903
24643
27559
43450
70403
48284
1890
96906
74697
72039
62990
90793
51882
82439
6423
82240
80723
86365
4523
17473
24577
94090
25406
104866
20162
69970
19772
20424
70707
25693
17979
43024
14457
2068
16130
2621
60216
14986
4241
52000
70469
13287
105826
2006
11367
72874
20144
23619
61924
28347
11208
99980
48001
100807
46984
100807
23805
39540
15020
39297
29231
52495
84688
54567
41682
85474
61412
2878
35427
37755
47168
39161
68819
2224
26892
2890
54905
85598
46776
54921
98
99871
7074
50892
59025
66634
20072
105053
20235
65764
93940
45091
73820
70239
3522
50613
70388
20072
4813
47988
17979
48593
15952
2524
58280
4952
12535
23804
81925
100092
7804
33229
30229
13844
79524
6526
46025
20471
74099
72874
101063
9612
83214
81442
100092
58100
18335
13741
101354
77113
30799
25960
98826
76646
43927
28254
5813
3399
94294
81121
71593
103013
46612
18101
51882
65292
101245
10895
73016
25680
12149
7655
2637
75180
17625
68348
5163
4394
62083
53334
54399
100743
42174
2272
44218
77116
33305
61329
15352
50590
4136
66066
45662
69169
63545
92006
16838
85009
30131
20957
4615
70403
70773
101043
28365
31065
27912
50945
23804
87151
3912
99126
60887
64956
64571
101509
81165
95712
65222
23903
28344
39297
29734
7381
77587
42851
77549
39977
13007
26179
56942
19
71240
13158
68769
4775
52055
15737
12189
72902
5705
83717
49301
20072
44094
43298
20543
104590
30202
16098
6446
17979
31021
95144
47808
62498
56364
42696
6543
77394
41735
72413
49447
67328
90920
71315
41278
10328
104749
48505
35824
27912
45439
12694
62083
1243
5715
88021
90301
82688
91012
32720
52765
37081
100560
60278
94926
14003
34129
33628
101063
52723
44233
76600
95063
80931
101063
54529
103710
49459
52000
103711
82240
46955
31732
31732
53309
46987
105715
67355
81534
33628
29285
106144
</DataArray>
<DataArray NumberOfComponents='3' type='Float32' Name='vels' format='ascii'>
7.029555 1.255387 0.001448
22.139303 4.767481 -0.005977
1.207636 -0.025079 -0.042805
34.423806 0.028161 0.042843
23.481402 -1.761120 0.010553
0.760893 0.019934 0.004813
26.849741 7.319625 0.022441
5.915790 1.225516 0.024101
7.719803 1.317926 0.000980
9.038163 0.735384 -0.007455
17.120352 -1.253124 0.001057
1.583096 -0.005578 -0.014234
8.718583 0.691346 -0.000840
4.508358 -0.087173 -0.000275
13.762158 2.003435 -0.006161
29.266321 -2.747723 -0.009376
13.729448 -4.210565 0.007120
8.398357 0.226478 0.071342
14.068991 0.218384 0.005963
27.933980 2.442029 0.007011
23.471891 1.806026 -0.035345
-0.039584 0.042866 -0.003416
27.326537 -9.728100 0.006658
2.100098 0.006146 0.004467
28.721168 -3.880910 -0.013615
23.554690 -1.817531 0.034697
2.798614 -0.076408 -0.169475
20.451662 5.763939 -0.010573
-0.044431 0.050710 -0.007159
8.057421 0.038436 -0.012101
22.353814 -2.830424 -0.046127
2.882505 -0.023230 0.000746
7.458960 0.056368 0.015622
39.757103 -0.484681 -0.018722
14.957543 0.586141 0.015825
10.468114 6.220671 0.016243
23.332519 6.346306 0.007395
22.668454 2.723004 -0.000945
10.187006 3.326742 0.000312
17.808029 -1.795887 -0.063209
5.484267 -0.154844 -0.008057
3.801340 -0.062477 0.000045
2.148235 -0.014298 -0.000877
8.666156 -0.053789 -0.038021
23.102772 -2.761880 0.010284
-0.036869 0.008421 -0.003036
0.056112 0.026409 -0.001929
22.238758 -4.862498 -0.007651
17.313743 1.281116 -0.044124
18.663312 8.441549 0.006910
30.177493 -3.139409 -0.045166
-0.014501 -0.029061 0.007217
23.126818 2.826092 -0.014144
0.076807 0.045797 -0.013906
7.334940 -0.162544 0.003041
12.653443 -2.778807 0.002883
5.785049 0.090878 -0.001734
8.165431 -1.961478 -0.006236
24.585082 -0.005900 0.009730
9.693914 -0.074503 -0.018210
8.833372 -0.574312 0.000500
22.773008 -2.698483 -0.000858
1.441998 0.001239 0.009818
23.284316 12.116014 0.108308
12.588218 7.200581 -0.002379
1.477894 -0.004374 -0.001630
9.290052 -0.630668 -0.003125
30.554278 -0.928844 0.013349
12.096818 -0.801137 0.014788
31.527584 -0.028773 -0.047884
23.973767 3.308603 -0.008589
7.630363 -0.376864 0.004187
11.277256 0.260431 0.004947
25.814087 -4.546418 -0.009593
0.037884 0.007496 0.000227
16.420036 0.665364 -0.001928
32.896389 4.458877 0.002071
34.981001 -9.221594 0.022676
21.613330 -4.839381 0.011447
25.332293 -12.191165 -0.014670
0.029855 -0.007661 -0.006402
22.556893 -8.276692 0.003454
11.290495 0.796430 -0.077032
22.605388 2.895334 -0.011815
20.845830 -0.815056 0.293011
3.755637 -0.063858 0.000584
6.432571 0.019681 -0.011835
23.114658 4.809742 0.011499
26.282840 0.021954 0.040418
29.936616 9.092161 0.005567
2.831284 0.158082 -0.000334
26.586054 -2.100277 0.051346
22.641088 -3.326724 -0.011497
12.966292 -2.492120 -0.015078
22.464069 6.995408 0.001620
0.662248 -0.003135 -0.001738
0.310315 0.050168 -0.007129
29.524353 0.085331 0.035306
20.390907 3.984027 -0.019486
14.389529 -0.990662 -0.004253
19.788331 -5.907732 -0.022598
0.150765 0.014359 -0.022875
22.475807 -2.166472 0.026353
28.691086 14.447429 0.067883
22.979977 -1.123028 -0.042072
30.504988 -8.850664 -0.007472
25.744233 13.670564 0.030206
23.225377 0.667422 -0.044953
23.117168 -1.174709 -0.022575
12.140635 -0.477113 -0.027337
26.521024 1.725751 0.050694
5.732018 -9.695996 0.412413
2.003408 0.022388 -0.000687
29.375684 15.975641 0.047093
11.164304 1.826832 -0.002286
16.211483 6.786358 -0.016031
27.540397 -13.710897 0.030860
29.714555 0.009385 0.012550
0.074172 0.007404 -0.024420
3.106120 -0.103662 -0.188549
0.424413 0.011019 0.008318
11.926945 -1.555272 -0.002972
6.730848 0.096551 0.068459
23.272889 -0.216583 0.019447
20.841593 10.433687 0.040794
5.506973 0.143609 0.003968
23.067380 1.838525 -0.034661
30.783849 8.683810 0.055892
22.503084 -1.856916 0.052369
11.646518 -1.151808 0.001388
7.630773 -0.360374 -0.009745
-0.223692 0.022266 -0.001940
26.497870 -2.625171 -0.053571
14.414269 -0.620695 0.051969
39.571475 0.326763 -0.091888
25.742375 -6.672065 -0.012822
8.033744 -6.939364 0.059836
23.308876 -4.889446 -0.016143
10.361132 0.034509 0.093877
5.414416 -0.008905 -0.000776
22.107302 -11.613507 -0.003811
21.313438 8.952394 -0.018022
17.247189 -9.825359 -0.025271
23.271855 2.594949 0.011089
23.280698 -3.507316 -0.017652
6.191900 0.047097 -0.002770
3.400640 -0.015672 0.009453
29.444589 -7.197339 -0.001580
18.690381 -7.405122 -0.000177
12.022414 -5.606894 -0.000865
30.692920 -0.002849 -0.018235
12.848725 1.608808 -0.001311
22.686959 1.002363 -0.144736
23.496933 -1.480788 -0.031845
9.374652 0.206551 0.017803
8.184273 0.068711 0.004413
11.473643 -0.071638 0.014670
11.765050 -1.489426 -0.005170
0.148557 -0.014987 0.022493
7.457751 0.603797 -0.005976
39.210281 0.699690 0.042090
10.379629 0.172530 0.017669
23.612474 -3.685250 -0.007574
22.551309 -1.486002 0.121839
6.896485 -0.342200 0.006985
38.513432 -5.170621 0.006739
29.827330 0.055669 0.001736
40.902796 -0.053866 -0.089115
9.719859 -0.129582 0.024697
7.195967 -0.017188 0.038699
-0.131689 -0.001362 0.010515
30.044182 -0.027139 0.055400
23.595289 -1.343382 -0.056806
10.784529 2.034594 -0.006654
41.588182 0.824952 0.050488
36.548918 1.128230 0.062865
0.344633 -0.005349 0.003673
39.131679 -1.508758 -0.010710
32.728074 -0.399172 -0.008696
23.223371 -2.051702 -0.027516
22.642525 -8.638318 0.006588
15.846050 0.958723 -0.002836
0.470560 -0.178112 -0.006673
10.411319 0.287534 0.020533
0.088216 -0.003455 0.032486
26.237301 0.110416 -0.030736
19.098491 1.888192 -0.105339
-0.038057 -0.000083 -0.002155
23.010516 6.284616 -0.000560
4.056548 0.087421 0.000119
22.788185 -3.282461 0.028762
34.326989 -1.092712 -0.048577
23.722209 2.656450 -0.014803
28.806835 -10.000595 0.021084
0.945791 -0.009629 0.003701
26.219145 6.251844 0.030769
23.010294 1.342136 -0.099317
8.987946 -0.045174 0.027193
21.889462 3.163259 -0.015779
15.762372 -1.284237 -0.021424
22.642703 -2.036138 0.075034
29.151714 -7.641415 -0.000867
9.685296 0.091440 -0.005895
32.768944 -2.654853 -0.009709
1.473233 0.000318 -0.006814
23.596975 1.554486 0.041976
-0.092978 0.031170 -0.001665
26.102064 -4.375647 0.021427
30.698238 1.035466 0.014280
2.883228 -0.003637 0.000303
21.214424 -2.445979 -0.059184
21.985071 -3.117209 -0.024727
22.614315 -2.813898 -0.006045
29.299954 -0.140959 -0.038679
11.927548 -0.525182 -0.051223
23.227604 1.875294 0.019808
22.207448 12.030777 -0.036923
31.992577 10.771059 -0.020156
22.659530 6.855947 0.008486
0.050287 -0.005352 0.000046
23.006862 -3.218208 -0.016018
6.347141 -8.173363 -0.187436
7.684592 -0.385711 0.001702
36.880079 -12.727453 0.066000
23.000018 -2.731629 -0.042096
12.654545 -0.254148 0.008187
40.194617 -2.782650 -0.038164
5.246648 0.046189 0.000697
6.109853 -0.030182 0.051183
8.753699 -3.301234 0.009613
28.678780 -4.216089 -0.022317
-0.134862 -0.028185 0.004081
4.849689 0.067813 -0.000057
22.432809 1.639228 -0.075753
13.149283 -0.573041 0.019355
4.608006 -0.146063 -0.076027
22.015200 9.158598 0.007375
9.052125 2.375268 0.006025
27.696335 -14.504969 -0.008960
5.261268 0.018443 -0.014558
6.363280 -0.087381 -0.005498
10.874573 4.482690 0.008995
33.069985 -5.575832 -0.021004
27.616704 -9.665640 0.102229
23.704440 -1.247543 0.023300
4.775303 0.018911 -0.055553
11.840805 6.789574 -0.004105
4.517122 0.017619 0.004745
9.877520 -0.367725 0.006248
14.390259 -0.154589 -0.004430
18.597836 9.671615 0.009119
22.844722 -2.702366 -0.037593
10.833665 0.100773 0.009884
13.046650 0.444032 -0.058837
27.954865 -0.782025 0.006272
12.293328 -0.542587 -0.005400
7.507739 10.963588 -0.270837
-0.094580 0.000231 0.022636
1.867136 0.007209 -0.001302
-0.134012 0.037636 -0.009901
24.303899 -8.768889 -0.004659
0.001160 -0.038484 0.013136
23.665712 3.305607 0.058213
18.566571 -2.713507 -0.035510
21.089608 -1.878437 0.027479
24.716337 3.166256 0.010576
4.737248 -0.051203 -0.000356
6.624101 -9.803163 -0.144288
31.643299 9.266926 0.035308
6.277361 0.191457 -0.000017
29.192641 -2.503261 0.070084
0.003895 -0.000115 -0.006675
22.289954 3.792003 0.006735
38.549390 -1.124053 0.079123
23.043083 3.536029 0.010796
28.173753 12.882555 0.036458
33.914681 -1.233469 -0.064027
22.081565 1.445837 0.089330
20.419255 0.068225 -0.042378
26.895391 -8.372931 0.010484
29.786044 -1.715142 0.038185
22.200472 -3.182308 0.040296
11.170572 -0.922957 0.003695
18.372899 1.458184 -0.036539
11.078072 -8.885342 0.045791
9.836749 -1.163823 -0.004499
28.628034 -0.025057 0.011579
0.026756 0.002299 0.000233
28.548634 -5.477144 -0.015911
10.153059 0.168702 -0.000290
11.627399 1.113555 -0.013174
27.629651 9.427371 -0.005301
23.435041 -2.019628 -0.027191
1.480399 -0.060884 0.000031
7.153262 -0.016949 -0.010895
11.025416 5.269571 0.003620
27.699778 0.641669 -0.056799
13.099159 -2.641849 -0.009963
4.458422 7.910387 -0.123926
6.806765 0.020255 -0.002655
2.027929 1.886182 0.242834
23.308083 3.387667 -0.014900
18.545021 3.966247 0.031197
20.912693 -2.294402 -0.079771
2.910751 1.440682 -0.001670
16.756226 -6.866270 -0.009111
23.361258 9.417525 0.009947
9.106920 0.247545 -0.025672