<VTKFile type='UnstructuredGrid' version='1.0' byte_order='LittleEndian' header_type='UInt64'>
<UnstructuredGrid>
<Piece NumberOfCells='500' NumberOfPoints='500'>
<Points>
<DataArray NumberOfComponents='3' type='Float32' Name='Position' format='ascii'>
1.886682 0.654916 0.227041
2.041913 0.322548 0.117272
0.379861 0.978942 0.221965
2.032789 0.817449 0.183718
2.006422 0.772777 0.106364
0.265206 0.191020 0.246057
2.021840 0.236634 0.075397
2.017995 0.818960 0.207017
1.938081 0.656688 0.224548
1.833528 0.786239 0.226845
2.000547 0.222329 0.034662
0.391852 0.005267 0.058421
1.690868 0.621620 0.221861
1.050430 0.139074 0.237201
2.020090 0.731064 0.214867
2.029884 0.896507 0.149988
2.019396 0.268186 0.204956
2.024177 0.929727 0.162309
1.998432 0.815717 0.218114
2.028493 0.103892 0.112536
2.053310 0.240382 0.149626
0.545062 0.102399 0.228436
2.013011 0.752185 0.079681
0.499480 0.991512 0.150563
2.010016 0.889759 0.129730
2.047684 0.745451 0.119795
1.487511 0.492466 0.096597
2.034071 0.303870 0.160488
0.054657 0.854635 0.001996
1.465841 0.960333 0.223193
2.049422 0.718082 0.151819
0.802617 0.266168 0.242497
1.578202 0.976598 0.185490
2.022542 0.715620 0.181877
2.007435 0.963692 0.130137
2.010632 0.639137 0.200410
2.032977 0.238094 0.074622
2.000648 0.118576 0.122908
2.023587 0.621514 0.041745
2.021349 0.083507 0.064647
1.790247 0.068469 0.217140
0.983880 0.174240 0.239597
0.589068 0.281911 0.008325
0.923596 0.028725 0.030343
2.007880 0.710244 0.115067
0.434900 0.526763 0.009250
0.028892 0.129060 0.020235
2.001995 0.747523 0.166309
2.009973 0.935019 0.106858
2.032963 0.684623 0.203324
2.034140 0.855777 0.176953
0.023056 0.665170 0.224256
2.008327 0.295468 0.130869
0.101380 0.849481 0.002454
1.065097 0.260244 0.230730
2.014178 0.336587 0.209485
1.555218 0.905603 0.230605
2.021289 0.403139 0.038827
2.020040 0.916381 0.117455
1.932796 0.045579 0.164818
2.009763 0.231899 0.027127
2.033928 0.852710 0.179680
0.324047 0.992298 0.194458
2.009942 0.676050 0.191148
2.019976 0.708230 0.042371
0.253916 0.724000 0.001749
2.005428 0.343931 0.028379
2.031539 0.915199 0.125560
2.031289 0.095241 0.207983
2.018562 0.097872 0.154440
2.032726 0.151930 0.157049
1.564076 0.308092 0.023852
1.977231 0.965140 0.116125
2.012379 0.857800 0.088540
0.039909 0.652691 0.241842
1.740974 0.644655 0.029221
2.006516 0.709664 0.056035
2.006612 0.733044 0.069206
2.032027 0.708061 0.156368
2.047422 0.659033 0.158041
1.106384 0.112794 0.212886
2.008623 0.671327 0.150335
2.017950 0.932096 0.066731
2.000212 0.119345 0.120454
2.027649 0.788814 0.122788
0.905265 0.180385 0.240406
1.429048 0.983149 0.187861
2.037782 0.301018 0.135393
2.000514 0.077327 0.105807
2.037639 0.231862 0.074891
1.549782 0.742421 0.020671
2.043692 0.901627 0.126913
2.041219 0.688146 0.137356
2.000429 0.215780 0.041495
2.033186 0.327317 0.104475
0.192364 0.612383 0.250010
0.034672 0.562585 0.249890
2.044269 0.818918 0.199550
2.001223 0.848056 0.050231
2.017651 0.129320 0.202862
2.012521 0.233298 0.045845
0.450646 0.980656 0.173282
2.030091 0.839346 0.098504
2.033268 0.354557 0.077770
2.041484 0.819601 0.133527
2.016896 0.735843 0.177114
2.005133 0.350592 0.093012
2.030378 0.211665 0.125291
2.051344 0.818365 0.128576
2.023131 0.039322 0.115082
2.015030 0.096685 0.090606
2.042048 0.398850 0.188016
0.561449 0.912705 0.241355
2.022922 0.372593 0.103430
2.023228 0.730447 0.214347
2.016049 0.756633 0.040487
2.020701 0.649097 0.095229
2.010562 0.904400 0.171377
0.063774 0.992246 0.222020
1.478106 0.496809 0.075585
0.126573 0.044174 0.005683
2.005788 0.276226 0.213360
2.032231 0.932595 0.160442
2.006229 0.058657 0.123712
2.029796 0.721484 0.189331
1.857744 0.897195 0.029361
2.022575 0.188149 0.135854
2.017201 0.681083 0.191017
2.023163 0.803616 0.100864
2.016357 0.106732 0.037931
1.995008 0.150519 0.222788
0.257344 0.505291 0.217371
2.015481 0.887887 0.167531
2.012309 0.059204 0.149143
2.024290 0.352007 0.073397
2.044852 0.258797 0.047845
2.004841 0.367351 0.200467
2.018896 0.681016 0.127061
0.886136 0.990402 0.101739
0.945508 0.462601 0.233662
2.018782 0.639498 0.119193
2.033252 0.732225 0.044826
2.006809 0.305431 0.041686
2.020581 0.271387 0.143559
2.029636 0.772421 0.161292
1.228036 0.984650 0.192280
0.954283 0.011181 0.100662
2.030579 0.775512 0.178289
2.041007 0.276005 0.046258
2.000271 0.289912 0.039032
2.030297 0.105648 0.171593
2.008805 0.883220 0.211431
2.007401 0.237211 0.132114
2.043957 0.792899 0.145899
1.894791 0.959740 0.088315
1.784372 0.963010 0.172856
1.572845 0.026344 0.162625
2.029679 0.371865 0.030569
0.031401 0.565873 0.250052
1.663933 0.644119 0.226344
2.031014 0.717976 0.184907
1.947475 0.953649 0.175625
2.015580 0.844944 0.092940
2.035106 0.799893 0.114166
1.951891 0.130138 0.222866
2.022126 0.726487 0.178634
2.027879 0.840318 0.184213
2.017479 0.630500 0.093234
1.988197 0.045732 0.165879
0.929731 0.023043 0.168941
0.038447 0.987493 0.129376
2.017105 0.149523 0.065801
2.002765 0.755692 0.135449
2.009781 0.723187 0.218147
2.024452 0.367358 0.155246
2.029788 0.686933 0.179488
0.071402 0.987828 0.007888
2.043170 0.614473 0.123196
2.022747 0.721939 0.186483
2.054804 0.758295 0.109029
2.041637 0.681193 0.088195
2.000301 0.875927 0.042103
2.000926 0.300494 0.207650
2.002114 0.947795 0.174869
0.434721 0.023993 0.080220
2.026112 0.916278 0.087320
2.030630 0.922772 0.068881
0.038275 0.988624 0.137935
2.043955 0.337547 0.127159
1.214699 0.886909 0.237894
2.014167 0.830135 0.092786
2.021179 0.297030 0.060840
2.006074 0.222603 0.150129
2.012553 0.718654 0.076826
0.220803 0.879773 0.246254
2.014067 0.221852 0.075742
2.022074 0.220839 0.125137
1.835222 0.042328 0.156182
2.024098 0.190148 0.166427
2.000155 0.115994 0.036692
2.031926 0.750208 0.100893
2.032816 0.780082 0.070591
1.067612 0.939212 0.017973
2.036882 0.229357 0.050515
1.243183 0.015877 0.192150
2.032852 0.230892 0.118425
0.373661 0.163070 0.227283
2.019598 0.843053 0.176573
2.016902 0.101517 0.145640
0.829701 0.459015 0.241560
2.045287 0.712677 0.129932
2.035427 0.694947 0.126864
2.048916 0.864810 0.125488
2.001647 0.913888 0.124021
2.014059 0.089480 0.039694
2.035264 0.224157 0.103852
2.025508 0.345656 0.154944
2.035546 0.726023 0.059531
2.008734 0.276993 0.174787
0.185007 0.027235 0.025178
2.014314 0.785718 0.158959
2.022817 0.412694 0.057546
1.983934 0.127722 0.024745
2.027677 0.625261 0.106097
2.002812 0.754347 0.144586
2.000397 0.043009 0.128105
2.012800 0.666294 0.074063
0.948371 0.635846 0.013235
1.429153 0.010559 0.095564
2.001944 0.360681 0.203661
2.009621 0.190728 0.054982
0.040540 0.703610 0.241087
1.123930 0.800585 0.013767
2.037639 0.183166 0.137945
2.002865 0.054265 0.168639
0.679680 0.972818 0.214914
2.030415 0.333994 0.097299
2.005081 0.638313 0.035432
2.021489 0.647323 0.134533
1.599903 0.948879 0.206818
1.516833 0.073549 0.020410
2.012652 0.670691 0.207114
2.017824 0.348008 0.065318
2.038313 0.328636 0.190803
2.017192 0.772864 0.111412
1.375041 0.501675 0.050260
2.022265 0.669826 0.040038
0.807613 0.986200 0.160528
2.002798 0.106988 0.215250
1.771761 0.178130 0.025027
2.022459 0.678012 0.204441
2.005690 0.712882 0.141472
1.338657 0.993058 0.144067
2.000333 0.953181 0.117134
2.019636 0.910267 0.135929
1.664264 0.332284 0.229267
2.006319 0.572720 0.097924
0.034845 0.996752 0.049176
0.423045 0.797797 0.005601
0.805712 0.666509 0.212599
2.007652 0.682386 0.138880
0.576519 0.626527 0.238615
2.005989 0.126293 0.114610
2.008474 0.747795 0.153841
2.001298 0.857592 0.150809
2.025124 0.119820 0.148109
0.889052 0.305736 0.013819
2.039586 0.412706 0.106171
2.024485 0.316321 0.073033
1.418439 0.881476 0.233603
2.013345 0.882962 0.090390
0.037410 0.187949 0.012976
2.015784 0.275097 0.093220
2.010821 0.308547 0.173000
2.033909 0.289244 0.112282
2.042875 0.331086 0.077792
2.039336 0.339690 0.068817
2.034917 0.195737 0.108191
2.013953 0.922460 0.103780
2.027577 0.749487 0.077519
2.000638 0.887062 0.082849
2.043238 0.860607 0.086299
2.022557 0.107515 0.035134
2.012521 0.933139 0.107317
2.021264 0.348509 0.201991
2.015875 0.174592 0.025673
2.036560 0.107947 0.066608
0.149022 0.963956 0.239342
2.018576 0.840891 0.076544
1.938315 0.768505 0.030509
2.025381 0.883073 0.216368
2.003428 0.277166 0.164066
2.040073 0.728954 0.132857
1.461396 0.253237 0.220893
1.704119 0.061742 0.035123
2.013732 0.699957 0.037390
2.038919 0.091718 0.151174
2.007386 0.174686 0.037130
2.010286 0.565693 0.109033
0.984779 0.362301 0.229433
1.761155 0.541702 0.181301
2.010992 0.147421 0.096275
2.023444 0.832276 0.209149
2.038118 0.748146 0.141266
2.007447 0.660923 0.215475
2.007343 0.252245 0.045028
2.038461 0.336184 0.102265
2.032140 0.948573 0.123652
1.870199 0.126842 0.029798
2.013046 0.936125 0.068833
2.036578 0.240857 0.056613
0.958368 0.422321 0.016198
2.019009 0.931509 0.079621
2.026656 0.128085 0.135971
2.011742 0.078111 0.152927
0.239299 0.510816 0.233409
2.005825 0.296214 0.042500
1.671782 0.244087 0.233684
2.020640 0.930446 0.117839
2.012230 0.680055 0.167305
2.024435 0.735181 0.039485
2.025570 0.769084 0.186028
2.012501 0.643426 0.035387
0.773718 0.987853 0.198282
0.040049 0.426302 0.015798
2.002534 0.716035 0.146029
0.081475 0.374535 0.241729
1.789360 0.055620 0.039132
2.028122 0.221336 0.119898
2.000288 0.313538 0.179206
0.012891 0.514228 0.240923
1.115651 0.213180 0.230890
1.154863 0.019388 0.041809
2.023364 0.091646 0.073414
0.007811 0.605221 -0.000325
2.022095 0.088833 0.073625
2.023175 0.607116 0.038665
2.028521 0.663280 0.028983
0.010775 0.278719 0.235415
2.048770 0.749451 0.090866
2.029164 0.787634 0.187305
1.980380 0.579222 0.039113
2.001214 0.102727 0.166548
1.538590 0.978795 0.066467
0.770220 0.114058 0.026572
2.016937 0.339622 0.074967
0.018953 0.890552 0.250145
2.000588 0.799573 0.125313
2.018788 0.585346 0.066433
2.010143 0.602290 0.201903
2.028930 0.271324 0.174884
2.010875 0.104483 0.044686
0.339082 0.982427 0.216537
2.026492 0.348990 0.140628
1.753918 0.916093 0.226027
2.033815 0.595950 0.076129
0.266923 0.010811 0.209237
2.031101 0.930411 0.137363
2.004660 0.865858 0.205160
2.002627 0.901958 0.043426
2.025588 0.792722 0.125310
2.036936 0.079405 0.138733
1.560964 0.969785 0.203755
2.006244 0.790524 0.087015
0.849652 0.020349 0.039139
0.688363 0.019462 0.164214
1.613081 0.414908 0.065702
0.016761 0.747759 0.010916
2.007610 0.172173 0.078813
2.007702 0.234239 0.216311
1.394615 0.498053 0.052484
0.733224 0.539741 0.229287
2.020352 0.301361 0.168629
2.011723 0.880291 0.032407
2.054257 0.245705 0.112442
1.191125 0.468382 0.108528
2.005327 0.901170 0.181384
2.004935 0.129279 0.216811
2.014286 0.350295 0.187820
2.016464 0.939830 0.139259
2.040402 0.096788 0.101012
2.001294 0.107314 0.184666
0.980779 0.024079 0.213641
2.038295 0.102904 0.177095
2.025195 0.408903 0.144709
1.810961 0.962919 0.088260
2.020001 0.799353 0.160508
2.012249 0.715509 0.135389
1.049247 0.994981 0.089366
0.034259 -0.000089 0.183998
2.032238 0.901429 0.052711
0.775441 0.478274 0.008669
2.047931 0.313367 0.104281
2.023425 0.371297 0.189176
2.033696 0.125638 0.135117
1.999433 0.672422 0.029483
2.009439 0.111121 0.210674
0.155130 0.985614 0.021660
2.001362 0.282336 0.081177
1.775584 0.370655 0.220137
2.016776 0.724579 0.168284
0.012727 0.012524 0.085155
2.007751 0.161367 0.097244
0.396652 0.958552 0.016165
2.021828 0.925834 0.076102
1.989006 0.092187 0.207285
2.012108 0.659642 0.207532
2.023007 0.116935 0.149028
2.001221 0.669073 0.192203
2.049318 0.245117 0.121517
2.007857 0.404492 0.211926
2.014259 0.206345 0.053412
2.029388 0.052975 0.176435
0.487703 0.989054 0.168655
2.017891 0.273142 0.089601
1.798943 0.071700 0.032301
2.001818 0.350240 0.144337
2.018226 0.826991 0.177203
1.429712 0.503445 0.192171
2.040798 0.271093 0.087862
2.039047 0.789668 0.048091
1.161257 0.057285 0.018903
1.778080 0.914491 0.218438
2.010548 0.695931 0.089083
2.015575 0.353923 0.199898
2.014640 0.582777 0.057398
2.024173 0.282589 0.075697
2.017580 0.697172 0.227207
2.025903 0.091580 0.162508
2.039833 0.740614 0.110457
2.045441 0.386358 0.068500
1.384424 0.018681 0.195079
2.035768 0.751377 0.149175
2.021132 0.167951 0.105210
2.030107 0.426089 0.134212
0.967725 0.676719 0.016076
2.017631 0.345764 0.201357
2.033975 0.332578 0.095046
2.024310 0.858399 0.143123
1.779292 0.345626 0.026150
2.036353 0.070023 0.119429
2.006043 0.826376 0.044697
2.033033 0.715423 0.127692
2.040083 0.091923 0.085418
2.023243 0.436303 0.110260
2.038732 0.267869 0.046259
2.022422 0.186151 0.198259
2.029531 0.103716 0.205389
2.015052 0.920555 0.112129
0.370484 0.618556 0.003776
0.236864 0.684366 0.247218
2.017961 0.096528 0.184175
2.003892 0.262647 0.030832
2.024277 0.380779 0.080066
0.648672 0.652625 0.012495
2.000152 0.715168 0.043558
2.015801 0.293648 0.220570
2.019767 0.325567 0.131726
2.010451 0.114133 0.153634
2.014853 0.372002 0.213192
0.766224 0.021446 0.039462
2.018938 0.868010 0.039757
2.008738 0.657800 0.178482
0.040545 0.572247 0.014532
1.429754 0.755891 0.224941
1.963564 0.042136 0.161107
1.831935 0.068057 0.213791
2.024197 0.296343 0.159639
1.837512 0.714811 0.021958
2.003979 0.189402 0.181230
0.047646 0.852974 -0.000133
1.997401 0.858577 0.220314
0.383626 0.953100 0.010963
0.150466 0.003169 0.208189
2.007821 0.839730 0.099613
2.028238 0.101937 0.203735
0.028884 0.374051 0.239767
2.006695 0.889089 0.035418
2.033046 0.667468 0.200239
1.478050 0.512779 0.126868
0.077418 0.940699 0.002370
2.017117 0.290534 0.208101
0.017955 0.388823 0.246452
2.042207 0.866436 0.076275
1.781038 0.952131 0.053110
2.005977 0.763890 0.090744
1.378851 0.500605 0.051276
1.725662 0.957400 0.053435
2.019777 0.409893 0.057595
2.007231 0.605300 0.202884
2.003610 0.932416 0.091151
2.013677 0.949706 0.108499
1.085291 0.987663 0.071140
0.904528 0.011952 0.056447
1.557929 0.022264 0.177442
2.019279 0.075744 0.157400
2.007864 0.166258 0.184835
2.007855 0.119610 0.200900
2.033492 0.829768 0.188287
2.009141 0.738372 0.125480
</DataArray>
</Points>
<PointData>
<DataArray NumberOfComponents='1' type='Int32' Name='ParticleType' format='ascii'>
1
1
1
1
1
1
1
1
1
1
1
1
1
1
1
1
1
1
1
1
1
1
1
1
1
1
1
1
1
1
1
1
1
1
1
1
1
1
1
1
1
1
1
1
1
1
1
1
1
1
1
1
1
1
1
1
1
1
1
1
1
1
1
1
1
1
1
1
1
1
1
1
1
1
1
1
1
1
1
1
1
1
1
1
1
1
1
1
1
1
1
1
1
1
1
1
1
1
1
1
1
1
1
1
1
1
1
1
1
1
1
1
1
1
1
1
1
1
1
1
1
1
1
1
1
1
1
1
1
1
1
1
1
1
1
1
1
1
1
1
1
1
1
1
1
1
1
1
1
1
1
1
1
1
1
1
1
1
1
1
1
1
1
1
1
1
1
1
1
1
1
1
1
1
1
1
1
1
1
1
1
1
1
1
1
1
1
1
1
1
1
1
1
1
1
1
1
1
1
1
1
1
1
1
1
1
1
1
1
1
1
1
1
1
1
1
1
1
1
1
1
1
1
1
1
1
1
1
1
1
1
1
1
1
1
1
1
1
1
1
1
1
1
1
1
1
1
1
1
1
1
1
1
1
1
1
1
1
1
1
1
1
1
1
1
1
1
1
1
1
1
1
1
1
1
1
1
1
1
1
1
1
1
1
1
1
1
1
1
1
1
1
1
1
1
1
1
1
1
1
1
1
1
1
1
1
1
1
1
1
1
1
1
1
1
1
1
1
1
1
1
1
1
1
1
1
1
1
1
1
1
1
1
1
1
1
1
1
1
1
1
1
1
1
1
1
1
1
1
1
1
1
1
1
1
1
1
1
1
1
1
1
1
1
1
1
1
1
1
1
1
1
1
1
1
1
1
1
1
1
1
1
1
1
1
1
1
1
1
1
1
1
1
1
1
1
1
1
1
1
1
1
1
1
1
1
1
1
1
1
1
1
1
1
1
1
1
1
1
1
1
1
1
1
1
1
1
1
1
1
1
1
1
1
1
1
1
1
1
1
1
1
1
1
1
1
1
1
1
1
1
1
1
1
1
1
1
1
1
1
1
1
1
1
1
1
1
1
1
1
1
1
1
1
1
1
1
1
1
1
1
1
1
1
1
1
1
1
1
1
1
1
1
1
1
1
1
1
1
1
</DataArray>
<DataArray NumberOfComponents='1' type='Int32' Name='ParticleID' format='ascii'>
0
1
2
3
4
5
6
7
8
9
10
11
12
13
14
15
16
17
18
19
20
21
22
23
24
25
26
27
28
29
30
31
32
33
34
35
36
37
38
39
40
41
42
43
44
45
46
47
48
49
50
51
52
53
54
55
56
57
58
59
60
61
62
63
64
65
66
67
68
69
70
71
72
73
74
75
76
77
78
79
80
81
82
83
84
85
86
87
88
89
90
91
92
93
94
95
96
97
98
99
100
101
102
103
104
105
106
107
108
109
110
111
112
113
114
115
116
117
118
119
120
121
122
123
124
125
126
127
128
129
130
131
132
133
134
135
136
137
138
139
140
141
142
143
144
145
146
147
148
149
150
151
152
153
154
155
156
157
158
159
160
161
162
163
164
165
166
167
168
169
170
171
172
173
174
175
176
177
178
179
180
181
182
183
184
185
186
187
188
189
190
191
192
193
194
195
196
197
198
199
200
201
202
203
204
205
206
207
208
209
210
211
212
213
214
215
216
217
218
219
220
221
222
223
224
225
226
227
228
229
230
231
232
233
234
235
236
237
238
239
240
241
242
243
244
245
246
247
248
249
250
251
252
253
254
255
256
257
258
259
260
261
262
263
264
265
266
267
268
269
270
271
272
273
274
275
276
277
278
279
280
281
282
283
284
285
286
287
288
289
290
291
292
293
294
295
296
297
298
299
300
301
302
303
304
305
306
307
308
309
310
311
312
313
314
315
316
317
318
319
320
321
322
323
324
325
326
327
328
329
330
331
332
333
334
335
336
337
338
339
340
341
342
343
344
345
346
347
348
349
350
351
352
353
354
355
356
357
358
359
360
361
362
363
364
365
366
367
368
369
370
371
372
373
374
375
376
377
378
379
380
381
382
383
384
385
386
387
388
389
390
391
392
393
394
395
396
397
398
399
400
401
402
403
404
405
406
407
408
409
410
411
412
413
414
415
416
417
418
419
420
421
422
423
424
425
426
427
428
429
430
431
432
433
434
435
436
437
438
439
440
441
442
443
444
445
446
447
448
449
450
451
452
453
454
455
456
457
458
459
460
461
462
463
464
465
466
467
468
469
470
471
472
473
474
475
476
477
478
479
480
481
482
483
484
485
486
487
488
489
490
491
492
493
494
495
496
497
498
499
</DataArray>
<DataArray NumberOfComponents='1' type='Int8' Name='IsActive' format='ascii'>
1
0
1
0
0
1
0
0
1
1
0
1
1
1
0
0
0
0
1
0
0
1
0
1
0
0
1
0
1
1
0
1
1
0
0
0
0
0
0
0
1
1
1
1
0
1
1
0
0
0
0
1
0
1
1
0
1
0
0
1
0
0
1
0
0
1
1
0
0
0
0
1
1
0
1
1
0
0
0
0
1
0
0
0
0
1
1
0
0
0
1
0
0
0
0
0
1
0
0
0
0
1
0
0
0
0
0
0
0
0
0
0
1
0
0
0
0
0
1
1
1
0
0
0
0
1
0
0
0
0
1
1
0
0
0
0
0
0
1
1
0
0
0
0
0
1
1
0
0
0
0
0
0
0
1
1
1
0
1
1
0
1
0
0
1
0
0
0
1
1
1
0
0
0
0
0
1
0
0
0
0
0
0
0
1
0
0
1
0
1
0
0
0
0
1
0
0
1
0
0
0
0
1
0
1
0
1
0
0
1
0
0
0
0
0
0
0
0
0
1
0
0
1
0
0
0
0
1
1
0
0
1
1
0
0
1
0
0
0
1
1
0
0
0
0
1
0
1
0
1
0
0
1
0
0
1
0
1
1
1
0
1
0
0
0
0
1
0
0
1
0
1
0
0
0
0
0
0
0
0
0
0
0
0
0
0
0
1
0
1
0
0
0
1
1
0
0
0
0
1
1
0
0
0
0
0
0
0
1
0
0
1
0
0
0
1
0
1
0
0
0
0
0
1
1
0
1
1
0
0
1
1
1
0
0
0
0
0
1
0
0
1
0
1
1
0
0
0
0
0
0
0
1
0
1
0
1
0
0
0
0
0
1
0
1
1
1
1
0
0
1
1
0
0
0
1
0
0
0
0
0
0
1
0
0
1
0
0
1
0
0
1
0
0
0
1
0
1
0
1
0
1
0
1
0
1
0
0
0
0
0
0
0
1
0
1
0
0
1
0
0
1
1
0
0
0
0
0
0
0
0
1
0
0
0
1
0
0
0
1
0
0
0
0
0
0
0
0
0
1
1
0
0
0
1
0
0
0
0
0
1
0
0
1
1
1
1
0
1
0
0
1
1
1
0
0
1
0
0
1
1
0
1
0
1
0
1
1
0
0
0
0
1
1
1
0
0
0
0
0
</DataArray>
<DataArray NumberOfComponents='1' type='Int32' Name='ParticleTetID' format='ascii'>
33909
-50400
81395
-69862
-102510
40446
-69112
-82730
58914
104201
-90622
48711
105019
60727
-82225
-93293
-91090
-74058
82729
-98831
-12127
104155
-98411
36737
-93293
-102840
7645
-91191
103391
72316
-34180
98316
98823
-39168
-100141
-81615
-69112
-42296
-100758
-96731
66324
68539
81286
38221
-90119
31808
94294
-93119
-79211
-82225
-90337
80251
-25302
76283
29024
-96944
850
-81404
-27681
104765
-90622
-90337
20471
-57434
-90680
72893
-90160
-27681
-44138
-104925
-80727
72352
34487
-96019
80251
104976
-75610
-98411
-34180
-57434
90059
-57434
-89958
-42296
-102510
96671
93545
-50400
-98306
-69112
104833
-93293
-104802
-99907
-83399
-79063
99903
-90337
-79597
-82515
-90622
77591
-96019
-58762
-86274
-93119
-58762
-98765
-86274
-97395
-96731
-44272
82445
-24526
-82225
-92602
-87306
-96325
98699
45407
82439
-91090
-74058
-98831
-39168
78911
-98765
-39168
-17626
-96893
99790
94882
-96325
-104925
-58762
-64130
-96944
-104802
55298
52767
-95998
-92602
-88016
-12127
-70156
5932
88292
-70156
-92373
-88016
-44138
-105710
-83215
-102510
448
5911
35600
-90160
-99904
55417
-39168
32542
-96019
-17626
17233
-39168
-90337
-74393
64071
78815
97137
-87514
-102840
-82225
-93819
-39168
99809
-96354
-39168
-102840
-91248
-105531
-91090
-74058
83169
-89958
-89958
97137
-96849
63839
-96019
-92373
-85990
-91248
100001
-69112
-83215
92531
-85990
-96893
-102840
-83820
97009
-64130
93470
-83215
91326
-90337
-98831
90312
-34180
-104802
-98210
-27681
-96893
-69112
-98308
-91248
-61396
86348
-70156
-46315
93834
-74393
-102840
-100053
-82524
78394
88805
-96944
-70433
69970
40214
-99021
-104925
2510
-83399
-90231
-104802
59231
73976
-81615
-58762
-98308
-102510
46550
-90231
66391
-82515
65025
-82225
-34180
91064
-90339
-27681
70019
-84540
99980
59344
16655
-104802
31115
-42296
-93119
-98210
-42296
60108
-90131
-83399
68129
-96019
85474
-94130
-91191
-25302
-83399
-58762
-99021
-79211
-98411
-48492
-96019
-96893
-79211
-96944
-70433
-100353
764
-96019
82084
-105710
-61396
-34180
86669
97147
-90680
-98831
-70433
-100422
29668
7756
-24687
-82730
-102840
-81615
-90622
-83399
-27681
81408
-89958
-64130
53224
-89958
-42296
-104925
91614
-88016
56092
-27681
-57434
-92602
-94146
-90231
11811
74099
-34180
61667
87309
-83215
-91191
100092
29801
57644
-96731
-101355
-96731
-104379
-90231
98826
-98411
-94146
39709
-44138
39464
94142
-58762
-71594
-17626
-25092
-78226
-61396
-96893
70468
-96849
89097
-25092
70265
-27681
-99052
-105531
-17626
-98831
10588
-83820
70459
31610
18502
100743
-56272
-82325
104174
88399
-91191
-105531
-83215
87745
-96325
-82515
-98308
-43214
-98306
-44138
9686
-44138
-19405
30240
-70156
-34180
98026
-101044
-48492
82910
-94130
-98308
-42296
101125
-82515
105060
-94130
72356
-93119
101509
-24687
35593
-89958
19247
-81615
-42296
-42146
-83215
-89384
-70433
-104925
97495
-94130
86560
-99096
-69862
12606
-94130
-99911
29546
58008
-91248
-96944
-25092
-92373
-82225
-104925
-102840
-24526
105455
-102840
-24687
-19405
34272
-96944
-83399
-98210
38451
-98831
-79597
-34180
-96731
-69914
-92373
-99721
-44138
-27681
79163
56224
-44138
-101289
-24526
34567
-90680
-91090
-50400
-42296
-96944
35052
-105531
-42146
88021
103087
39603
38480
-95447
76146
-99721
-100561
100874
45850
100376
-96019
-44138
101063
-105531
-42146
68153
99121
-91090
101063
-96019
7512
-98411
67853
18142
-46315
-78226
-79211
-79211
78580
79714
35600
-104925
-99721
-44138
-90337
-102840
</DataArray>
<DataArray NumberOfComponents='3' type='Float32' Name='vels' format='ascii'>
18.220615 -2.055312 -0.063851
22.746117 0.571945 -0.290697
2.353029 0.008125 0.003178
20.081773 -0.217840 -0.277921
23.484112 -0.510887 0.083072
1.367387 -0.018398 0.000684
20.333378 0.277334 -0.621174
12.783111 0.221707 0.073535
7.975281 -0.357119 -0.100396
0.211731 -0.025173 -0.000061
0.217718 0.013813 0.058638
1.328226 0.000469 0.013804
6.966613 -2.961254 -0.001494
15.673696 -3.063014 0.002407
13.642843 -0.263199 -0.225210
20.644419 -0.244898 0.011251
14.087736 0.281257 1.252631
14.293141 1.904616 0.878634
17.531016 -0.338510 -0.293779
19.044396 -1.244907 -0.238396
21.835456 0.067503 1.640637
2.329895 -0.058281 -0.000056
20.051412 -0.328575 -0.076616
2.194602 -0.001300 0.017669
18.297037 -0.214221 0.115799
22.591256 -0.226395 0.244628
2.934620 -0.058267 0.195333
21.418610 0.522880 0.667956
0.527392 0.000962 0.109459
8.921762 -0.265564 -0.004501
22.058982 -0.221339 0.905368
2.831039 -0.999000 0.001367
9.272375 -0.307983 -0.020580
19.420937 -0.419907 0.689956
9.525294 1.051627 0.162017
9.873437 -0.276749 0.223623
19.690416 0.183231 -1.354405
17.262796 -0.581290 -0.236368
13.020581 -0.450925 -1.719911
13.718675 -1.653544 -1.157650
8.832939 0.586027 0.004038
6.268546 -1.956105 -0.003316
2.954909 -0.288935 -0.001095
5.812622 -0.299101 -0.007525
23.253517 -0.506630 -0.243077
3.222334 0.031340 0.000447
0.024766 0.017471 -0.003224
21.234953 -0.478901 -0.021576
16.783738 0.725048 0.022270
15.336051 -0.375124 2.450828
15.641460 0.592641 2.478244
0.100499 -0.024728 0.011496
23.583462 0.705706 0.031841
0.718680 -0.001833 0.000250
7.166525 -3.063710 0.044912
12.898903 0.342379 1.238865
9.559295 -1.127641 -0.004982
13.280735 0.278610 0.164190
16.294222 1.334800 -0.294998
10.204263 0.221044 -0.011974
5.808161 -0.012437 -0.307565
15.971599 0.661878 2.362355
1.874016 0.005179 0.000165
16.469972 -0.440812 0.460427
8.803361 -0.053175 -1.230980
0.561868 0.004271 -0.000201
10.740587 0.297700 -1.133387
16.358776 2.099030 -0.512324
13.698757 -1.440865 2.243215
12.106804 0.099396 -0.173926
20.829917 -0.376475 0.351593
7.324171 6.271875 0.030463
14.868518 -0.359430 -0.026609
21.624399 0.251894 -0.102345
0.075728 0.005586 0.002000
3.633996 -0.874710 0.002928
18.270654 -0.489875 0.186874
16.029687 -0.488661 0.199500
22.453575 -0.519201 0.546982
20.858756 -0.561026 1.745228
1.579746 -0.085039 0.008307
22.318605 -0.637696 0.060034
12.451290 1.606906 -1.239628
17.872999 -0.508012 -0.210598
21.544261 -0.576351 -0.237666
5.151318 -1.712551 0.008483
8.070846 -0.083556 -0.129028
22.850020 0.504740 0.291769
16.743318 -0.167094 -0.066923
20.405083 0.175823 -1.416689
8.505840 -5.055686 0.017918
18.397170 2.312845 0.926571
22.928140 -0.721532 0.020940
1.092060 -0.057378 -0.099089
21.674624 0.629290 -1.020716
0.117633 0.000420 0.000014
-0.144226 0.035768 0.006127
18.277976 1.459873 2.053854
15.193783 -0.200755 0.411678
8.382616 -1.056661 1.118900
9.911597 0.030293 -0.531683
3.962398 0.015575 -0.038297
16.604183 0.954922 -1.554912
16.518350 0.455337 -2.328386
22.200797 0.725471 -0.532589
19.328759 -0.349707 0.354440
19.388330 0.531497 -1.176200
23.505890 -0.017541 0.011079
21.587448 0.974728 -0.641169
9.527705 -1.530749 -0.112747
16.482712 -1.531327 -0.673981
20.251569 0.364379 1.295825
2.217512 0.050851 -0.006521
22.036278 0.624905 -0.469285
14.124127 -0.284270 -0.217126
10.498283 -0.075992 -0.761585
21.786999 -0.601339 -0.143358
14.298232 0.925327 0.629781
0.761764 -0.002988 -0.002726
2.928563 -0.071538 0.298494
0.545247 -0.005530 0.002917
6.375299 0.134909 0.583683
14.099799 2.576252 1.169191
13.357897 -0.648771 -0.039844
17.437643 -0.326126 1.677305
8.011708 -0.423320 0.033744
23.130137 -0.019389 0.136113
16.798710 -0.409249 0.846982
21.975496 -0.398811 0.347033
11.426230 -1.001875 -1.211797
4.505967 -0.400004 0.250353
10.652620 0.002539 0.004877
17.775444 0.811653 0.366037
14.614608 -2.401172 0.802102
16.323602 0.461840 -1.527500
20.101702 0.219511 -1.888051
10.340887 0.260235 0.538024
23.078656 -0.988561 -0.027553
4.263825 0.053789 -0.036097
1.226837 -0.592695 0.015462
22.910553 -0.665074 -0.024346
15.478941 0.434950 -2.683764
3.843808 0.025786 -0.011749
23.086697 0.462772 0.127130
20.097993 -0.001831 0.998274
9.175320 0.028701 0.085838
5.775210 -0.107157 -0.019810
21.604291 0.016050 0.594368
20.440455 0.307652 -1.507826
3.309534 0.025848 -0.069147
16.746200 -1.534288 1.226030
10.253146 0.947459 1.119102
23.785807 0.531745 -0.031865
21.848852 0.420922 0.793156
7.822447 -0.144370 0.059059
8.804806 -0.202443 0.002161
11.132155 0.375645 -0.069390
12.836041 0.386901 -2.273542
-0.209238 0.019446 0.003920
6.148692 -3.195352 -0.006192
17.330247 -0.352344 1.789258
9.138007 -0.138186 -0.136364
19.581049 0.422816 -0.371368
23.074533 -0.332614 -0.039117
7.581394 0.171178 -0.058573
16.564731 -0.331065 1.203524
19.095386 0.410807 1.106184
21.597133 -0.714607 0.164443
10.409654 0.038253 -0.061793
8.991621 -0.268705 0.133884
-0.097475 -0.002016 0.008093
18.889380 -0.021748 0.028150
23.744358 -0.623742 0.078356
6.083785 -0.114745 0.693848
21.550093 0.597724 0.177560
19.931805 -0.620684 -0.104144
0.139123 0.003066 -0.000449
22.186483 -0.580909 0.085191
18.532700 -0.364004 0.898198
22.731125 -0.410106 -0.267865
16.903104 -0.287756 -3.000994
2.618152 0.214458 0.047809
14.810948 0.363075 0.196271
10.891050 0.859468 0.466115
5.243102 -0.015587 -0.006440
15.925088 1.660978 -1.064572
13.425174 2.439846 -1.661108
0.010100 -0.000889 -0.005480
22.474392 0.693944 0.051149
8.933335 -0.041640 -0.005737
16.990761 0.499263 -0.526326
17.556272 0.387056 -1.088772
22.424382 0.267650 -0.125181
19.438241 -0.645570 0.307630
1.087868 0.010792 -0.000748
19.790404 0.145941 -0.245545
23.805036 0.246133 -0.090822
10.467799 0.296474 -0.040399
17.974424 -0.188307 1.097113
11.220117 -0.667190 -0.338685
22.916248 -0.253452 -0.514480
18.818351 0.349067 -1.391396
8.855784 0.341317 0.003063
15.899244 0.166904 -2.510908
8.937465 0.034585 -0.063271
23.480659 0.156312 -0.174877
6.880758 -0.100495 -0.001649
18.643998 0.568643 0.689326
18.384430 -0.878138 0.303210
7.009415 -1.093252 -0.010727
23.583081 -0.560089 0.024302
23.161558 -0.767744 -0.045548
20.291565 1.561776 -0.694303
16.401910 -0.321120 -0.053734
10.492033 -1.280470 -1.330174
21.410000 0.626257 0.310330
18.442322 0.652253 -0.220620
17.690202 -0.279277 -2.290119
18.769647 0.377517 0.667154
0.325012 -0.001831 0.009423
17.750980 -0.020871 0.508239
17.540848 0.458101 -1.060460
11.813332 -0.655003 -0.487538
20.417662 -0.645471 0.231195
23.602854 -0.615112 0.038929
12.160696 -1.012091 0.189499
18.576584 -0.501876 -0.358508
1.661035 2.415867 -0.022198
6.534999 0.019893 0.036597
13.702585 0.396953 0.289287
6.917325 -0.024386 0.013341
0.117524 -0.034831 0.013841
10.282681 1.144851 0.008785
21.328316 0.562810 0.238438
12.057405 0.044548 -0.097366
2.849015 0.017834 0.001462
22.195289 0.732663 -0.247530
2.252395 -0.033993 0.023985
22.344953 -0.609651 0.782143
14.328902 -1.201006 -0.018059
12.704405 0.975216 -0.024956
15.872573 -0.624415 -0.376809
21.407858 0.824238 0.337188
17.297617 0.488402 2.433505
23.606339 -0.372745 -0.031862
7.349027 0.015298 -0.116158
13.166489 -0.210343 -1.750043
4.767639 0.062350 0.075284
9.399261 -0.801023 0.807560
8.982575 1.372884 -0.006839
14.328609 -0.354769 1.438157
21.838368 -0.661170 -0.191753
34.742689 0.081510 0.009481
1.967034 -0.040918 -0.033000
15.580226 -0.323972 0.093963
3.446173 1.583657 0.004809
21.053992 -0.422851 0.024730
0.139667 0.001804 0.065650
2.034193 0.052619 0.000393
10.274186 3.378249 -0.014283
23.244983 -0.730652 -0.131282
3.861563 0.241417 -0.000024
20.722970 -0.207133 -0.102217
22.750940 -0.531753 0.033055
20.545453 -0.083357 -0.102342
20.285490 -0.903266 0.046184
3.254928 -2.163742 0.000322
21.801124 0.497681 -0.757091
19.879728 0.548398 -0.714806
20.365027 -0.736421 -0.041350
18.274489 0.518023 -0.272507
-0.005201 0.001070 -0.006193
22.049778 0.519534 -0.195881
19.783170 0.573937 0.196976
23.087101 0.531150 0.110178
20.744513 0.554739 -1.416790
18.689961 0.464014 -2.153891
22.952633 -0.348073 -0.012363
15.385875 1.081334 -0.018862
20.312842 -0.228192 -0.737240
18.555870 0.457150 -0.153506
18.423548 1.307541 -2.021391
10.524621 -1.063843 -1.645949
16.597472 0.870109 0.031602
13.153952 0.251382 1.635128
15.026963 -0.710945 -2.419758
15.862789 -1.859636 -1.900831
1.768231 0.010432 0.016063
20.159521 0.339274 -0.414015
9.502777 -0.262208 0.109726
12.441263 0.840484 0.891875
21.204620 0.562607 -0.004813
21.937366 -0.464106 0.805875
15.541629 4.816949 -0.060839
9.034624 0.574268 0.144170