<VTKFile type='UnstructuredGrid' version='1.0' byte_order='LittleEndian' header_type='UInt64'>
<UnstructuredGrid>
<Piece NumberOfCells='500' NumberOfPoints='500'>
<Points>
<DataArray NumberOfComponents='3' type='Float32' Name='Position' format='ascii'>
0.508560 0.616339 0.227029
1.128091 0.190370 0.117500
0.124683 0.980477 0.222795
0.790508 0.803008 0.185312
1.325605 0.868687 0.106866
0.072598 0.191902 0.247217
0.962133 0.191897 0.074726
0.604654 0.802681 0.209484
0.503703 0.617338 0.224893
0.440453 0.769610 0.227466
0.387149 0.246174 0.035439
0.094550 0.006662 0.059000
0.532200 0.541758 0.219447
0.279561 0.255116 0.236931
0.468314 0.694077 0.215176
0.969269 0.928303 0.150293
0.526283 0.320061 0.203697
0.601290 0.931454 0.160660
0.147549 0.790849 0.218760
0.936609 0.077097 0.112667
1.318028 0.142544 0.146094
0.014531 0.099265 0.236508
0.993713 0.816980 0.078720
0.103585 0.991258 0.149727
1.020421 0.927691 0.130337
1.295733 0.852583 0.119018
0.928211 0.491254 0.101026
1.072919 0.188125 0.159480
0.032621 0.846748 0.003394
0.313031 0.936070 0.218892
1.254479 0.836016 0.151858
0.198331 0.311512 0.242288
0.334596 0.960171 0.184074
0.777234 0.667521 0.181280
0.489876 0.956722 0.128001
0.676581 0.600643 0.202262
1.021081 0.168451 0.076513
1.114208 0.074514 0.123679
0.616286 0.574322 0.046612
0.603009 0.090009 0.068409
0.399539 0.089283 0.215873
0.281329 0.291736 0.238985
0.174573 0.294121 0.005634
0.241139 0.038819 0.031788
1.257044 0.831275 0.115633
0.046384 0.524699 0.007238
0.027251 0.126155 0.021796
1.105739 0.847323 0.166182
0.608387 0.931855 0.106318
0.668550 0.654641 0.198889
0.941667 0.895325 0.171625
0.020584 0.669442 0.222317
1.241565 0.173446 0.131871
0.034883 0.848212 0.004357
0.414483 0.478344 0.228052
0.558874 0.387444 0.206728
0.314818 0.856192 0.231002
0.634903 0.454080 0.040151
0.859633 0.926138 0.119349
0.355764 0.047882 0.165683
0.400389 0.252166 0.027001
0.967451 0.888067 0.173821
0.088206 0.993450 0.192844
0.726126 0.626302 0.190067
0.623753 0.660014 0.043824
0.095138 0.722776 0.004119
0.420280 0.388870 0.029583
0.928791 0.925834 0.128300
0.491966 0.104916 0.204450
0.814127 0.092370 0.155543
1.124654 0.094378 0.157182
0.488529 0.466346 0.027520
0.465369 0.962701 0.114252
1.034319 0.906004 0.087591
0.041673 0.651964 0.243221
0.439871 0.579036 0.029185
0.768979 0.698225 0.055599
0.892856 0.766484 0.067719
1.109164 0.819543 0.155348
0.986363 0.723334 0.150771
0.013404 0.206432 0.215813
1.044669 0.781793 0.150628
0.672299 0.915069 0.068353
1.128408 0.074389 0.120032
1.382802 0.879093 0.122535
0.258933 0.255408 0.239242
0.273947 0.965534 0.186084
1.106477 0.190071 0.135011
0.794390 0.074528 0.105056
0.970937 0.176827 0.077678
0.434833 0.587546 0.021137
0.973956 0.924436 0.124458
1.220057 0.824081 0.137358
0.561227 0.242591 0.039084
1.066324 0.215530 0.106037
0.064975 0.613033 0.248177
0.017250 0.557992 0.248448
0.774524 0.808760 0.195258
0.595787 0.842066 0.048662
0.400500 0.145541 0.201175
0.669580 0.234907 0.046735
0.023389 0.985399 0.176032
1.281311 0.900971 0.102127
0.966956 0.296787 0.083419
1.319464 0.889922 0.134317
0.923015 0.784313 0.177112
0.976048 0.292176 0.095216
1.371355 0.126389 0.125432
1.324599 0.889691 0.129610
0.531461 0.050111 0.116562
0.948085 0.082955 0.091743
0.864242 0.442894 0.179254
0.121432 0.907757 0.241442
0.968670 0.317740 0.103583
0.477736 0.694944 0.215347
0.636826 0.717137 0.042119
0.977805 0.711342 0.095877
0.885082 0.914271 0.171453
0.023140 0.993678 0.221895
0.894225 0.497161 0.080979
0.059459 0.043403 0.006191
0.441568 0.319887 0.212693
0.611128 0.928225 0.154819
0.775524 0.067359 0.123059
0.731231 0.677938 0.187702
0.411746 0.898292 0.029011
1.281322 0.113289 0.135367
0.751236 0.650389 0.191883
1.298237 0.879997 0.099466
0.514386 0.120202 0.037783
0.397403 0.168581 0.225954
0.013902 0.503025 0.224769
0.960874 0.910753 0.166717
0.694102 0.064450 0.149832
0.922206 0.341547 0.078542
0.706839 0.293612 0.051973
0.738335 0.422209 0.198601
1.175545 0.812885 0.125787
0.209819 0.984354 0.099497
0.306579 0.491567 0.234422
1.009115 0.730469 0.120676
0.711443 0.717661 0.050093
0.677581 0.340032 0.040302
1.267103 0.158694 0.143318
1.239600 0.865052 0.159720
0.258110 0.968992 0.191454
0.255919 0.018658 0.101584
0.915692 0.807330 0.180253
0.636179 0.302959 0.047274
0.633088 0.321825 0.038300
0.823887 0.105693 0.170029
0.553979 0.871351 0.205783
1.351273 0.143042 0.132946
1.326922 0.875622 0.143737
0.443428 0.958006 0.088477
0.391331 0.959414 0.173089
0.238814 0.038813 0.161003
0.540535 0.431133 0.033513
0.033109 0.567845 0.248995
0.521636 0.562714 0.224693
0.837656 0.706211 0.180862
0.428527 0.950907 0.175359
1.086150 0.903345 0.092075
1.328470 0.881721 0.113840
0.405461 0.143032 0.223988
0.873828 0.717623 0.177853
0.822136 0.852596 0.182728
0.936820 0.638007 0.095462
0.386996 0.047426 0.167203
0.302448 0.034311 0.168057
0.040152 0.988501 0.127655
0.782434 0.143516 0.065029
1.324463 0.858520 0.136032
0.488855 0.691689 0.216378
0.942482 0.357348 0.153348
0.855607 0.676860 0.180766
0.032093 0.985743 0.006064
0.956356 0.638918 0.123622
0.777528 0.706734 0.185468
1.303400 0.858012 0.109251
1.018207 0.765348 0.096142
0.452533 0.859958 0.042540
0.614653 0.339327 0.209490
0.474932 0.938066 0.171622
0.022215 0.014985 0.077996
0.791274 0.912018 0.089366
0.684004 0.920548 0.072513
0.038001 0.988872 0.138349
1.061360 0.220906 0.125908
0.321474 0.783311 0.237897
1.193609 0.895621 0.092005
0.843992 0.309145 0.061208
1.260884 0.128794 0.150077
0.919191 0.754059 0.075191
0.043507 0.883040 0.247301
0.950975 0.178870 0.074913
1.349040 0.130745 0.125753
0.352521 0.044818 0.157524
1.169393 0.113065 0.165059
0.502188 0.131488 0.036356
1.277474 0.852807 0.101922
0.983348 0.835230 0.072442
0.312666 0.899401 0.019094
0.735671 0.237724 0.054518
0.350253 0.031671 0.189666
1.390210 0.135820 0.118395
0.018908 0.158094 0.234982
0.968148 0.884628 0.174582
0.922336 0.079655 0.144607
0.255503 0.476824 0.241963
1.240352 0.830047 0.131654
1.195245 0.827915 0.126561
1.127651 0.914895 0.128196
0.868947 0.927117 0.124912
0.469235 0.092459 0.045421
1.293235 0.134955 0.103822
0.966472 0.299615 0.156259
0.700804 0.688546 0.062326
1.039605 0.184769 0.173939
0.109418 0.026351 0.023664
1.216745 0.874610 0.158365
0.793723 0.448182 0.062602
0.422388 0.148454 0.025539
0.963625 0.657148 0.106833
1.246169 0.855250 0.144708
0.443637 0.047928 0.127922
0.914035 0.683608 0.074193
0.351223 0.535409 0.014855
0.342825 0.025844 0.098061
0.678417 0.422189 0.202717
0.707688 0.198162 0.052736
0.039903 0.708791 0.240116
0.295694 0.596293 0.013713
1.310814 0.110516 0.137069
0.482667 0.063992 0.168237
0.121946 0.969095 0.214410
1.008738 0.251364 0.097793
0.579995 0.600657 0.035143
0.984888 0.696739 0.132166
0.278968 0.930629 0.205647
0.298706 0.112279 0.021630
0.594679 0.630108 0.209893
0.812486 0.385108 0.066109
0.756165 0.374461 0.184989
1.354625 0.862850 0.112463
0.774969 0.508473 0.063324
0.648644 0.641676 0.043113
0.230752 0.980755 0.159128
0.399217 0.119695 0.212901
0.101443 0.212651 0.025252
0.610488 0.628285 0.200871
1.254869 0.836391 0.142782
0.361684 0.975390 0.141467
0.501741 0.948633 0.115068
0.899160 0.927133 0.137343
0.428156 0.412489 0.229388
0.930580 0.566712 0.102081
0.033098 0.995633 0.045647
0.050167 0.793078 0.006227
0.009979 0.621555 0.216691
1.000062 0.741102 0.139537
0.033058 0.622409 0.242898
1.115562 0.074236 0.114087
1.202460 0.851082 0.154415
1.135412 0.911151 0.151585
1.009264 0.087544 0.149507
0.254933 0.395091 0.013068
0.942067 0.433611 0.110394
0.941289 0.271052 0.074401
0.367172 0.778964 0.231658
0.938221 0.911943 0.088562
0.036313 0.190028 0.014129
1.183672 0.159013 0.092756
0.850384 0.335380 0.172900
1.180238 0.169499 0.111724
0.956131 0.282528 0.080920
0.868570 0.358282 0.074366
1.310439 0.119009 0.108029
0.830348 0.924179 0.104173
0.975511 0.802957 0.077847
0.882966 0.902270 0.081139
1.011470 0.908803 0.089873
0.518319 0.115757 0.038185
0.615315 0.929350 0.104633
0.699283 0.399951 0.198574
0.494685 0.194687 0.028893
0.786261 0.100769 0.069128
0.084198 0.964190 0.238696
0.995604 0.891582 0.075792
0.135227 0.741978 0.031869
0.543039 0.869611 0.211563
0.978966 0.216042 0.164842
1.293612 0.837686 0.130445
0.518467 0.481041 0.211166
0.352251 0.066109 0.034266
0.623169 0.648479 0.037742
0.877219 0.076487 0.148112
0.555188 0.192798 0.037742
0.942289 0.560317 0.112684
0.456036 0.486014 0.226683
0.901524 0.524113 0.164763
1.122760 0.089560 0.095292
0.630622 0.820988 0.207094
1.289673 0.851772 0.140080
0.642245 0.635985 0.215102
0.640683 0.277843 0.042288
1.011953 0.252764 0.101802
0.548431 0.950658 0.124290
0.235281 0.145514 0.029359
0.517355 0.926784 0.069889
0.764409 0.244948 0.059076
0.385801 0.489691 0.017955
0.552957 0.928626 0.080676
1.124964 0.082158 0.135306
0.822925 0.069639 0.151142
0.016686 0.507807 0.235380
0.645941 0.329337 0.042490
0.371757 0.317135 0.232853
0.703277 0.924807 0.117675
0.978364 0.746457 0.168211
0.668446 0.699750 0.042134
0.932108 0.812809 0.184481
0.561181 0.613122 0.036295
0.221410 0.980141 0.195470
0.039220 0.426357 0.016869
1.249739 0.835763 0.147516
0.029524 0.374042 0.239710
0.392917 0.063153 0.038860
1.364258 0.132982 0.119536
0.854190 0.321490 0.178567
0.012874 0.515906 0.242801
0.211901 0.437008 0.228301
0.255797 0.037644 0.043274
0.805963 0.098433 0.075826
0.007725 0.606316 0.000452
0.769930 0.093112 0.076895
0.585152 0.555808 0.043749
0.597285 0.624265 0.032352
0.008372 0.280861 0.235577
1.253902 0.852397 0.096846
0.862643 0.793567 0.189351
0.595766 0.535652 0.042486
0.827059 0.089812 0.169415
0.325449 0.962721 0.067976
0.023133 0.130577 0.025715
0.941447 0.300896 0.076828
0.012317 0.889701 0.249034
1.346851 0.878663 0.124924
0.871852 0.557042 0.071698
0.674492 0.555272 0.201460
1.042997 0.178450 0.173704
0.535511 0.108600 0.043217
0.018769 0.982490 0.216497
0.981444 0.296914 0.139745
0.406446 0.901022 0.225276
0.913699 0.587095 0.083808
0.129710 0.009222 0.205859
0.760176 0.926018 0.137589
0.600797 0.848661 0.205456
0.501067 0.894382 0.044411
1.371915 0.876361 0.123438
0.874583 0.084635 0.137135
0.307677 0.953691 0.202020
1.213520 0.874184 0.086322
0.212180 0.027677 0.042010
0.245101 0.020536 0.163432
0.900268 0.473962 0.084331
0.017265 0.746538 0.011252
0.969366 0.125424 0.077811
0.593827 0.262697 0.215004
0.791152 0.503060 0.064445
0.029911 0.535259 0.227550
1.024838 0.208251 0.165636
0.445546 0.860139 0.036153
1.311367 0.145434 0.114062
0.941499 0.473486 0.112088
0.742440 0.893861 0.182173
0.474505 0.139319 0.216963
0.765390 0.390094 0.187536
0.591056 0.936712 0.140946
0.882900 0.080633 0.102273
0.719788 0.113054 0.185391
0.275647 0.036605 0.210971
0.873930 0.097571 0.174119
0.941578 0.420908 0.142458
0.329237 0.956490 0.088911
1.227039 0.881395 0.157260
1.247598 0.832864 0.135968
0.275881 0.977584 0.093305
0.033951 0.000463 0.183555
0.614949 0.886562 0.057758
0.256994 0.484244 0.008928
1.150304 0.183574 0.102983
0.803428 0.400774 0.186613
1.123272 0.083732 0.133458
0.528617 0.638133 0.027879
0.514216 0.118576 0.209715
0.060903 0.982951 0.021621
0.961327 0.236529 0.079763
0.498537 0.446695 0.219353
0.991736 0.789586 0.167726
0.017734 0.014302 0.080996
1.158743 0.097728 0.097661
0.037900 0.959400 0.016085
0.719224 0.922502 0.077511
0.447010 0.101840 0.207736
0.659079 0.604614 0.206607
1.018348 0.084708 0.149049
0.783878 0.615702 0.192850
1.303710 0.147129 0.121721
0.565576 0.456175 0.206959
0.674352 0.218441 0.050322
0.486973 0.060421 0.173968
0.144882 0.989678 0.169527
1.106544 0.164691 0.088759
0.405697 0.074657 0.033473
0.997970 0.273145 0.142524
0.892138 0.848122 0.176159
0.851572 0.503768 0.180653
1.136972 0.164519 0.089419
0.778395 0.780800 0.053861
0.247173 0.098413 0.018068
0.330973 0.904438 0.218983
1.034040 0.787976 0.087957
0.673514 0.433283 0.196558
0.809767 0.547910 0.061190
0.996147 0.203220 0.073751
0.517452 0.654149 0.223605
0.764925 0.086087 0.161464
1.281016 0.846643 0.111237
0.852788 0.433694 0.074353
0.312334 0.035353 0.194432
1.211092 0.854065 0.149404
1.254682 0.102074 0.104500
0.944723 0.441272 0.132225
0.400754 0.537850 0.015819
0.673195 0.386574 0.199870
1.009020 0.243099 0.095860
1.180812 0.915707 0.141482
0.441466 0.404651 0.024033
0.824120 0.071516 0.121087
0.644277 0.810815 0.044321
1.287037 0.829921 0.128693
0.939950 0.084536 0.090296
0.942827 0.450943 0.114168
0.673525 0.298373 0.048826
0.765439 0.207223 0.195552
0.629076 0.122735 0.201168
0.882419 0.925825 0.111863
0.129218 0.618795 0.003943
0.049643 0.687325 0.247638
0.696884 0.102923 0.180866
0.492808 0.283043 0.031030
0.894815 0.410765 0.080968
0.034116 0.639540 0.011682
0.623274 0.653165 0.043200
0.515294 0.327153 0.221566
1.118520 0.192950 0.132780
1.001329 0.088455 0.153860
0.610364 0.415648 0.209499
0.196508 0.024961 0.041304
0.609450 0.860317 0.045109
0.850010 0.642159 0.176242
0.039709 0.572937 0.015007
0.568702 0.519159 0.218054
0.453119 0.044950 0.160609
0.427884 0.080576 0.212596
1.122608 0.174527 0.159897
0.482559 0.680566 0.020014
0.824139 0.192072 0.182065
0.037216 0.848110 0.001233
0.483582 0.847304 0.221547
0.040087 0.952983 0.013362
0.074931 0.003088 0.207894
1.232478 0.899909 0.098766
0.574767 0.116234 0.199685
0.028331 0.374106 0.238618
0.466118 0.872312 0.035880
0.777349 0.634313 0.192107
0.942392 0.514044 0.126347
0.028213 0.944225 0.001918
0.644808 0.319958 0.205231
0.018897 0.387675 0.244919
0.944915 0.896286 0.077959
0.362677 0.946775 0.053087
1.198068 0.859753 0.089597
0.803616 0.505904 0.063247
0.354989 0.949876 0.052718
0.795608 0.448932 0.062868
0.702008 0.571414 0.200717
0.568579 0.926102 0.089804
0.558441 0.946707 0.108855
0.255156 0.977022 0.071143
0.225547 0.020604 0.057061
0.336827 0.037907 0.174926
0.782948 0.074458 0.157981
0.772317 0.171430 0.184933
0.663396 0.127839 0.200318
0.749841 0.815025 0.186442
1.325064 0.846457 0.124996
</DataArray>
</Points>
<PointData>
<DataArray NumberOfComponents='1' type='Int32' Name='ParticleType' format='ascii'>
1
1
1
1
1
1
1
1
1
1
1
1
1
1
1
1
1
1
1
1
1
1
1
1
1
1
1
1
1
1
1
1
1
1
1
1
1
1
1
1
1
1
1
1
1
1
1
1
1
1
1
1
1
1
1
1
1
1
1
1
1
1
1
1
1
1
1
1
1
1
1
1
1
1
1
1
1
1
1
1
1
1
1
1
1
1
1
1
1
1
1
1
1
1
1
1
1
1
1
1
1
1
1
1
1
1
1
1
1
1
1
1
1
1
1
1
1
1
1
1
1
1
1
1
1
1
1
1
1
1
1
1
1
1
1
1
1
1
1
1
1
1
1
1
1
1
1
1
1
1
1
1
1
1
1
1
1
1
1
1
1
1
1
1
1
1
1
1
1
1
1
1
1
1
1
1
1
1
1
1
1
1
1
1
1
1
1
1
1
1
1
1
1
1
1
1
1
1
1
1
1
1
1
1
1
1
1
1
1
1
1
1
1
1
1
1
1
1
1
1
1
1
1
1
1
1
1
1
1
1
1
1
1
1
1
1
1
1
1
1
1
1
1
1
1
1
1
1
1
1
1
1
1
1
1
1
1
1
1
1
1
1
1
1
1
1
1
1
1
1
1
1
1
1
1
1
1
1
1
1
1
1
1
1
1
1
1
1
1
1
1
1
1
1
1
1
1
1
1
1
1
1
1
1
1
1
1
1
1
1
1
1
1
1
1
1
1
1
1
1
1
1
1
1
1
1
1
1
1
1
1
1
1
1
1
1
1
1
1
1
1
1
1
1
1
1
1
1
1
1
1
1
1
1
1
1
1
1
1
1
1
1
1
1
1
1
1
1
1
1
1
1
1
1
1
1
1
1
1
1
1
1
1
1
1
1
1
1
1
1
1
1
1
1
1
1
1
1
1
1
1
1
1
1
1
1
1
1
1
1
1
1
1
1
1
1
1
1
1
1
1
1
1
1
1
1
1
1
1
1
1
1
1
1
1
1
1
1
1
1
1
1
1
1
1
1
1
1
1
1
1
1
1
1
1
1
1
1
1
1
1
1
1
1
1
1
1
1
1
1
1
1
1
1
1
1
1
1
1
1
1
1
1
1
1
1
1
1
1
1
1
1
1
1
1
1
1
1
1
1
</DataArray>
<DataArray NumberOfComponents='1' type='Int32' Name='ParticleID' format='ascii'>
0
1
2
3
4
5
6
7
8
9
10
11
12
13
14
15
16
17
18
19
20
21
22
23
24
25
26
27
28
29
30
31
32
33
34
35
36
37
38
39
40
41
42
43
44
45
46
47
48
49
50
51
52
53
54
55
56
57
58
59
60
61
62
63
64
65
66
67
68
69
70
71
72
73
74
75
76
77
78
79
80
81
82
83
84
85
86
87
88
89
90
91
92
93
94
95
96
97
98
99
100
101
102
103
104
105
106
107
108
109
110
111
112
113
114
115
116
117
118
119
120
121
122
123
124
125
126
127
128
129
130
131
132
133
134
135
136
137
138
139
140
141
142
143
144
145
146
147
148
149
150
151
152
153
154
155
156
157
158
159
160
161
162
163
164
165
166
167
168
169
170
171
172
173
174
175
176
177
178
179
180
181
182
183
184
185
186
187
188
189
190
191
192
193
194
195
196
197
198
199
200
201
202
203
204
205
206
207
208
209
210
211
212
213
214
215
216
217
218
219
220
221
222
223
224
225
226
227
228
229
230
231
232
233
234
235
236
237
238
239
240
241
242
243
244
245
246
247
248
249
250
251
252
253
254
255
256
257
258
259
260
261
262
263
264
265
266
267
268
269
270
271
272
273
274
275
276
277
278
279
280
281
282
283
284
285
286
287
288
289
290
291
292
293
294
295
296
297
298
299
300
301
302
303
304
305
306
307
308
309
310
311
312
313
314
315
316
317
318
319
320
321
322
323
324
325
326
327
328
329
330
331
332
333
334
335
336
337
338
339
340
341
342
343
344
345
346
347
348
349
350
351
352
353
354
355
356
357
358
359
360
361
362
363
364
365
366
367
368
369
370
371
372
373
374
375
376
377
378
379
380
381
382
383
384
385
386
387
388
389
390
391
392
393
394
395
396
397
398
399
400
401
402
403
404
405
406
407
408
409
410
411
412
413
414
415
416
417
418
419
420
421
422
423
424
425
426
427
428
429
430
431
432
433
434
435
436
437
438
439
440
441
442
443
444
445
446
447
448
449
450
451
452
453
454
455
456
457
458
459
460
461
462
463
464
465
466
467
468
469
470
471
472
473
474
475
476
477
478
479
480
481
482
483
484
485
486
487
488
489
490
491
492
493
494
495
496
497
498
499
</DataArray>
<DataArray NumberOfComponents='1' type='Int8' Name='IsActive' format='ascii'>
1
1
1
1
1
1
1
1
1
1
1
1
1
1
1
1
1
1
1
1
1
1
1
1
1
1
1
1
1
1
1
1
1
1
1
1
1
1
1
1
1
1
1
1
1
1
1
1
1
1
1
1
1
1
1
1
1
1
1
1
1
1
1
1
1
1
1
1
1
1
1
1
1
1
1
1
1
1
1
1
1
1
1
1
1
1
1
1
1
1
1
1
1
1
1
1
1
1
1
1
1
1
1
1
1
1
1
1
1
1
1
1
1
1
1
1
1
1
1
1
1
1
1
1
1
1
1
1
1
1
1
1
1
1
1
1
1
1
1
1
1
1
1
1
1
1
1
1
1
1
1
1
1
1
1
1
1
1
1
1
1
1
1
1
1
1
1
1
1
1
1
1
1
1
1
1
1
1
1
1
1
1
1
1
1
1
1
1
1
1
1
1
1
1
1
1
1
1
1
1
1
1
1
1
1
1
1
1
1
1
1
1
1
1
1
1
1
1
1
1
1
1
1
1
1
1
1
1
1
1
1
1
1
1
1
1
1
1
1
1
1
1
1
1
1
1
1
1
1
1
1
1
1
1
1
1
1
1
1
1
1
1
1
1
1
1
1
1
1
1
1
1
1
1
1
1
1
1
1
1
1
1
1
1
1
1
1
1
1
1
1
1
1
1
1
1
1
1
1
1
1
1
1
1
1
1
1
1
1
1
1
1
1
1
1
1
1
1
1
1
1
1
1
1
1
1
1
1
1
1
1
1
1
1
1
1
1
1
1
1
1
1
1
1
1
1
1
1
1
1
1
1
1
1
1
1
1
1
1
1
1
1
1
1
1
1
1
1
1
1
1
1
1
1
1
1
1
1
1
1
1
1
1
1
1
1
1
1
1
1
1
1
1
1
1
1
1
1
1
1
1
1
1
1
1
1
1
1
1
1
1
1
1
1
1
1
1
1
1
1
1
1
1
1
1
1
1
1
1
1
1
1
1
1
1
1
1
1
1
1
1
1
1
1
1
1
1
1
1
1
1
1
1
1
1
1
1
1
1
1
1
1
1
1
1
1
1
1
1
1
1
1
1
1
1
1
1
1
1
1
1
1
1
1
1
1
1
1
1
1
1
1
1
1
1
1
1
1
1
1
</DataArray>
<DataArray NumberOfComponents='1' type='Int32' Name='ParticleTetID' format='ascii'>
41022
77727
103165
20698
105904
88115
64556
49990
41022
54567
8608
40784
6342
50159
103072
89657
33229
7717
78089
103663
39302
101388
16120
24855
34549
22869
14031
45038
100560
106070
57506
37795
13287
60425
102818
41566
27743
34262
22181
105202
51390
69172
72829
25819
42220
83524
94294
34822
7964
46419
4835
80251
22926
100560
85302
101603
7457
6317
24888
26446
50654
10786
89697
65827
34567
87437
60291
35849
1093
18233
18232
2491
99964
49788
80251
55699
25282
56188
27430
103471
99295
75890
11305
18370
44816
84709
22369
51890
2270
81076
55699
89657
41432
7216
21233
64197
99903
40511
15303
33482
2591
101500
59047
75529
65213
38834
26774
14867
48493
95104
103665
63666
27043
3303
103072
22905
56712
9774
101245
12964
31131
64101
7717
2270
29805
104927
73238
65827
62615
47915
52045
100092
3931
10885
12698
27874
50289
47964
3585
43450
95171
83606
7397
48416
60659
22369
3708
38834
84658
76774
90497
78408
14283
47184
46133
27941
48338
105895
99903
15518
6374
8604
103222
43441
33482
6385
30627
47149
8496
64260
97137
49335
34301
103072
37890
35342
101445
84693
35275
41937
103295
103404
74051
29683
101509
78879
11305
97137
51754
14177
17274
80908
4676
21427
71593
89063
11387
26446
3546
47915
20844
26940
71892
41738
16838
66930
100903
10786
89550
23453
41432
25357
5698
44063
49829
18424
982
35104
102609
82439
28749
8252
15952
24522
43814
9138
6868
59217
43626
78909
55443
69970
37784
77551
23527
103165
12662
6430
71033
17967
68955
12914
40179
36197
105907
33793
11892
10848
43570
13405
12914
57506
4933
102817
89660
37475
25998
99980
47131
100807
15614
100807
34262
5804
14934
2411
66703
70392
29212
35269
80117
85474
57999
130
23902
89427
104280
8970
33199
13701
48174
42319
49169
7964
29227
96001
81531
99871
22261
18499
78408
37034
17789
104251
38484
98108
7911
70951
8183
29392
79968
63289
64942
39040
25083
1845
12662
6641
70534
103710
19208
72441
4634
18370
3266
100092
21497
20936
18872
104496
47776
42
679
97319
74099
57506
101063
3010
2388
1023
100092
57099
27297
68350
101354
81531
24218
26378
98826
80841
48383
91852
90497
12291
94294
21550
71593
105906
40815
19469
13548
49169
101245
853
17558
10673
71307
45386
62986
66355
44816
67786
106070
23153
22635
56590
56404
100743
92368
97700
85485
77116
60000
103404
13323
29909
59025
2422
8568
5399
7911
6075
81539
76045
66020
59136
33120
20969
33138
101043
20165
74629
71462
21204
18370
6191
17043
99126
58715
104252
30605
101509
34254
90633
33033
32799
41566
15306
11961
13323
65794
14527
23527
52957
8601
4945
85713
39121
19180
95817
73080
68114
103349
42647
78909
46321
55249
30633
12187
5430
18544
43397
5804
20225
73258
7801
44224
18985
51977
57753
3266
43037
17789
103665
65028
15932
25870
13074
90391
33088
61212
3330
59768
6413
76206
34567
38013
32256
2411
27601
42758
15303
13211
88021
46192
24498
51390
86842
23376
2829
100560
63353
89152
90466
17924
78581
101063
96576
74287
81945
95063
11286
101063
76700
47729
56525
16881
47729
8544
13937
4634
1637
68090
57454
53334
51108
16410
13074
22091
37671
</DataArray>
<DataArray NumberOfComponents='3' type='Float32' Name='vels' format='ascii'>
7.584996 0.241241 0.000022
36.938369 -13.360813 -0.039199
2.860895 0.026465 0.000192
19.035585 3.748084 -0.006847
44.821696 -0.238756 0.002047
0.883839 0.024619 0.003965
21.318528 -9.854843 -0.007686
12.356444 0.787889 0.003824
8.318338 0.251530 -0.000295
7.374655 0.154269 -0.003801
15.344377 -0.265726 0.000339
1.549124 0.010618 -0.004071
9.631807 0.143433 0.003289
4.656079 -0.050587 0.001510
3.097423 0.120703 0.001045
23.474111 2.361476 -0.009300
13.885996 -0.575823 -0.002519
15.397025 0.416163 0.058329
9.623574 -0.009172 0.038816
24.996723 -3.980784 0.027593
45.313941 0.496754 0.003909
-0.124241 0.029833 -0.001206
27.440761 11.627526 -0.028948
3.622931 0.004282 0.010387
28.750393 3.422778 0.027934
46.534919 -0.297667 0.005165
7.390886 -0.316739 -0.029867
32.161250 -14.497836 0.075862
0.057814 0.038403 -0.010931
4.896121 0.002584 -0.002726
45.171520 1.207793 -0.021723
2.863665 -0.011476 0.003571
7.822721 0.029322 -0.011863
17.273633 4.420651 -0.005255
9.990336 0.057378 0.017482
9.496595 0.851624 -0.014449
30.786361 -10.955061 -0.029705
34.573729 -3.182795 0.002704
13.395553 0.523068 -0.003324
13.094971 -0.418705 -0.045513
7.894051 -0.099152 0.017759
12.509394 -0.112827 0.005977
2.072188 -0.009153 -0.000703
8.041891 -0.023502 -0.009447
46.629477 0.723065 0.022452
0.075863 0.008994 -0.004283
0.059558 0.027358 -0.001789
37.028588 10.032223 0.028947
14.313210 0.245712 -0.060154
5.414050 0.807746 -0.001336
24.870863 4.212710 0.009308
0.062443 -0.031592 0.010159
46.661966 -0.545839 -0.003345
0.062464 0.041691 -0.012700
8.291039 -0.029239 -0.000138
12.891425 -0.533194 -0.001308
5.752130 0.053682 -0.001711
11.603192 -0.382320 0.001248
20.172078 1.886651 -0.030348
7.243205 -0.038586 0.023556
15.506864 -0.298851 -0.001553
26.362203 5.207413 -0.013675
1.224482 -0.001042 0.012395
13.431473 1.786049 0.002355
13.600010 1.082704 -0.001171
1.491633 -0.007676 -0.002780
9.685161 -0.153191 -0.000174
21.414919 2.170279 -0.023441
10.794388 -0.148655 0.029870
20.179543 -2.056064 0.031149
36.683160 -4.206793 0.039944
12.484207 -0.104082 0.003533
8.709541 0.052148 0.010531
32.478500 6.208450 -0.035665
0.057118 0.007397 0.001197
9.452415 0.125124 0.002025
9.372792 2.510694 0.004412
19.402192 7.980492 0.001892
35.461297 12.572111 0.071555
15.903421 14.926681 0.114107
0.060495 -0.004574 -0.007413
26.073473 16.570519 0.104742
16.468650 0.744401 0.019074
36.439935 -2.719248 0.010870
45.444212 0.230336 -0.015262
13.828333 -0.095439 0.029664
6.393087 0.036467 -0.017053
33.075666 -15.051854 0.076913
17.451457 -1.226858 -0.036530
26.737699 -10.172178 -0.011300
7.105859 0.103237 0.001215
25.408212 3.286986 -0.063364
45.462723 3.230138 -0.006186
12.318185 -0.653378 -0.004323
30.870466 -16.307835 -0.051270
0.733420 -0.011640 0.000409
0.214375 0.056617 -0.013521
18.067165 3.710415 0.010689
13.614043 0.671393 0.000985
12.724847 -0.171002 0.007836
14.216173 -1.594948 0.001098
0.247795 0.011348 -0.048938
40.255190 0.368790 -0.018049
13.754215 -13.423336 -0.116484
42.418539 -0.030913 0.000293
19.619621 8.294029 0.025215
11.544378 -13.471265 -0.221892
45.139517 -0.570646 -0.004405
42.330955 -0.026411 0.000368
11.087183 -0.077282 0.015237
26.839923 -5.325293 0.013057
10.704532 -2.699181 -0.000337
5.828161 0.061768 0.056194
10.698788 -12.668955 -0.094383
3.427846 0.132617 0.001134
12.899915 1.261685 0.006065
14.343061 14.085939 -0.123608
24.273261 5.616932 -0.049105
0.135308 0.008285 -0.036150
9.007230 -0.237029 -0.010864
0.997918 -0.021035 -0.000579
13.325349 -0.269082 0.000133
14.545867 0.374282 0.067215
16.881962 -1.037933 -0.023892
16.660998 2.963936 -0.002963
7.300897 0.055460 0.003842
44.204621 -0.406106 -0.025081
14.181583 2.456510 -0.004743
43.544163 -0.035933 0.007635
7.619958 -0.150425 0.000211
7.386762 -0.110021 -0.001309
0.011154 0.022876 -0.008037
25.136194 3.971616 0.021115
9.293460 -0.216437 0.022990
12.030656 -9.097182 -0.039273
9.667639 -1.428963 -0.004863
11.334803 -1.628214 0.002799
42.402027 7.777999 0.009369
3.959077 0.015090 -0.018279
5.440166 -0.006447 0.000719
17.823815 16.341803 -0.032419
14.706609 2.309293 -0.001202
14.062858 -1.736943 -0.005253
45.883967 -0.244524 -0.017159
43.612421 1.408322 0.007045
5.962092 0.005365 0.042319
4.492640 -0.002926 0.002621
22.692774 8.170750 0.001985
14.010337 -1.307791 -0.002654
11.860771 -1.094616 -0.000402
20.343160 -2.711346 0.014172
8.464991 0.278476 0.007879
45.665506 0.107849 -0.001824
44.234405 -0.148984 -0.001004
4.733257 0.038839 -0.040690
7.746193 0.024302 0.011902
7.570206 -0.017386 -0.037210
9.385501 -0.245238 0.001691
0.077248 -0.008667 0.018205
8.180963 0.173094 -0.000950
17.596009 6.387455 0.000110
9.158744 0.054502 -0.028182
34.899100 5.172268 -0.034059
44.678939 -0.138810 0.002686
7.628464 -0.103652 0.001642
14.875278 7.100628 0.004183
17.193362 3.233458 0.012598
9.965883 8.866249 -0.067942
8.334772 -0.071741 0.023868
7.176033 -0.007465 0.015001
0.049839 -0.007236 0.001503
11.321566 -1.510374 -0.014061
46.048388 -0.305760 -0.002827
6.132886 0.238684 -0.000130
10.733119 -9.921330 0.076427
14.860959 6.696921 0.001407
0.364847 -0.004158 0.002324
7.620424 8.268496 0.020877
18.448265 5.221018 -0.005774
45.725824 -0.324793 0.002894
23.143395 16.288886 -0.120856
0.557317 0.013928 -0.000239
12.276894 -0.945909 0.002465
10.443718 0.084268 0.001014
-0.008278 -0.002775 0.021961
18.680352 1.592032 -0.013201
12.194358 0.406174 0.010719
-0.000244 -0.000416 -0.004449
27.770474 -16.741290 0.011433
4.079251 0.048796 0.001671
35.088949 1.012495 0.004714
13.466698 -7.170443 -0.009651
44.693192 -0.709870 -0.017239
19.148547 10.793485 -0.024338
0.623586 -0.129099 -0.013113
27.603986 -11.138115 -0.010479
45.561911 0.101156 -0.001911
9.445372 -0.036950 0.003692
38.092076 -3.771289 0.022160
5.468250 -0.116271 -0.000108
46.514291 -0.091981 0.012622
26.955370 8.014493 -0.012425
7.240438 0.048976 0.006954
16.414617 -2.740436 0.009360
10.744198 -0.110424 0.044426
45.361675 -0.375238 -0.018332
-0.139660 0.025790 -0.000699
26.416880 5.411297 -0.009119
22.751089 -2.560199 0.001487
18.332149 -0.032874 0.022223
46.551239 2.144174 0.000158
45.648263 6.435163 0.012616
34.192847 2.438774 0.023107
20.749738 2.036686 -0.014905
10.118786 -0.109705 0.008133
44.987030 0.337601 0.014290
13.344964 -13.168217 0.124408
16.783932 2.377814 0.007857
29.843585 -13.430758 0.045959
0.734400 -0.004581 0.000387
43.140522 2.566812 0.015544
12.913813 -1.624717 -0.018483
7.506559 -0.141623 0.006100
9.249505 11.503721 -0.182507
45.855770 1.676680 0.005174
12.621036 -0.174097 0.001979
13.138289 9.220527 -0.035453
5.191430 0.019091 -0.000040
6.254137 0.004958 -0.010569
15.646459 -1.123317 -0.009093
15.802345 -1.944227 -0.013337
-0.002373 -0.030059 0.007246
4.884990 0.037746 -0.000624
41.048716 -0.121278 0.004185
12.011915 -0.094727 0.036352
2.979631 0.025280 0.004426
18.893084 -16.107979 -0.136271
5.199486 0.325154 -0.001041
13.653621 14.390620 0.027384
5.996307 0.033481 0.039463
5.933291 -0.062000 0.000561
11.003198 0.670856 0.001317
11.327399 -3.504039 -0.000561
5.187999 -0.831445 0.008400
44.235701 0.065976 -0.002320
10.936796 0.259013 -0.009187
12.679478 1.113614 -0.003725
11.270267 0.063508 -0.004382
9.040403 -0.096230 0.019802
16.842280 0.720905 0.851633
13.394445 1.065357 0.003355
46.236884 0.951552 -0.004724
5.851614 0.021798 -0.023518
7.323382 0.065558 0.037896
21.981018 2.377986 -0.016084
7.027221 -0.098833 0.001629
7.607861 4.078313 -0.044876
0.025029 0.000285 0.044534
1.975076 -0.090295 -0.039679
-0.069255 0.028302 -0.014363
14.573960 15.169533 0.111220
0.030945 -0.037831 0.017272
34.400987 -3.120032 -0.006803
44.391972 4.461520 0.008300
37.120248 3.674409 0.030651
29.478804 -4.393944 0.025450
4.564031 -0.022178 -0.000526
6.666971 -4.000970 -0.030182
17.532811 -11.922486 -0.047205
6.136012 0.087485 0.002759
24.463790 3.571558 -0.014539
0.037612 0.003221 -0.007687
44.274026 -6.418634 -0.005835
15.955682 -6.509882 0.001387
43.997917 -7.897275 -0.007330
15.432126 -12.853173 -0.079519
14.357370 -6.613892 0.001525
42.079068 0.099941 0.021876
19.366318 1.701039 -0.005095
25.519391 11.685798 -0.021581
22.866601 3.276926 -0.062733
29.357471 4.646962 -0.065174
9.319159 -0.181131 0.001342
14.604626 0.289451 -0.058761
13.716045 -1.434694 -0.003055
9.163886 -0.302446 0.002965
20.683038 -2.824976 -0.020424
0.316828 0.003817 0.003581
27.683643 5.113498 -0.035375
4.746513 -0.012519 -0.012732
6.969643 0.219468 0.002449
19.998800 -10.090414 0.023582
46.350105 -0.597642 0.001461
15.617336 -0.087705 -0.002042
8.021325 -0.054845 0.002972
10.989237 0.879495 0.000534
20.223559 -1.897515 0.016172
10.349084 -0.482524 -0.001735
6.556459 3.616686 -0.032657
6.824564 -0.031094 0.002112
7.777227 1.182045 0.025032
36.331853 -4.044061 -0.004114
9.192016 0.706099 -0.007936
43.013548 -0.136648 0.001499
16.585831 1.104947 0.002076
16.251522 -1.503856 -0.008273
18.773044 -16.306239 -0.118054
13.477478 0.212008 0.023273
8.409053 -0.090138 0.000202