<VTKFile type='UnstructuredGrid' version='1.0' byte_order='LittleEndian' header_type='UInt64'>
<UnstructuredGrid>
<Piece NumberOfCells='500' NumberOfPoints='500'>
<Points>
<DataArray NumberOfComponents='3' type='Float32' Name='Position' format='ascii'>
1.425283 0.808341 0.228120
2.041913 0.322548 0.117272
0.325676 0.978225 0.221553
2.032789 0.817449 0.183718
2.006422 0.772777 0.106364
0.158266 0.192541 0.245856
2.021840 0.236634 0.075397
2.017995 0.818960 0.207017
1.436568 0.807884 0.225115
1.432079 0.871131 0.227615
1.662762 0.179160 0.036076
0.296334 0.006416 0.058142
1.242922 0.766845 0.221416
0.717574 0.228881 0.237979
1.770710 0.753490 0.215364
2.029884 0.896507 0.149988
2.019396 0.268186 0.204956
2.024177 0.929727 0.162309
1.225086 0.891231 0.219304
2.028493 0.103892 0.112536
2.053310 0.240382 0.149626
0.228480 0.107147 0.228990
2.013011 0.752185 0.079681
0.361283 0.992107 0.150097
2.010016 0.889759 0.129730
2.047684 0.745451 0.119795
1.262115 0.490430 0.096208
2.034071 0.303870 0.160488
0.042361 0.851811 0.002618
0.960547 0.954481 0.221998
2.049422 0.718082 0.151819
0.567412 0.303993 0.242685
1.035478 0.977138 0.187420
2.022542 0.715620 0.181877
1.576785 0.973701 0.130182
1.985932 0.639743 0.199850
2.032977 0.238094 0.074622
2.000648 0.118576 0.122908
1.838665 0.631895 0.044674
1.986744 0.087505 0.067401
1.300378 0.050047 0.217463
0.620780 0.278159 0.238923
0.398784 0.291864 0.006852
0.644761 0.036766 0.032290
2.007880 0.710244 0.115067
0.239741 0.525534 0.007558
0.028276 0.128853 0.020720
2.001995 0.747523 0.166309
1.968457 0.932816 0.106705
2.032963 0.684623 0.203324
2.034140 0.855777 0.176953
0.022486 0.668065 0.223902
2.008327 0.295468 0.130869
0.042258 0.851434 0.002283
0.925750 0.429500 0.226528
1.813606 0.322232 0.208709
0.909657 0.896483 0.231182
1.605642 0.317823 0.037451
2.020040 0.916381 0.117455
1.323389 0.026769 0.168265
1.547828 0.154746 0.026550
2.033928 0.852710 0.179680
0.241066 0.992730 0.194101
2.009942 0.676050 0.191148
2.019976 0.708230 0.042371
0.225466 0.724035 0.001383
1.471049 0.199795 0.029026
2.031539 0.915199 0.125560
1.697547 0.084644 0.204394
2.018562 0.097872 0.154440
2.032726 0.151930 0.157049
0.996946 0.298611 0.024053
1.443150 0.980324 0.114907
2.012379 0.857800 0.088540
0.040750 0.652889 0.242668
1.283737 0.788734 0.028257
2.006516 0.709664 0.056035
2.006612 0.733044 0.069206
2.032027 0.708061 0.156368
2.047422 0.659033 0.158041
0.464376 0.204564 0.213573
2.008623 0.671327 0.150335
1.862051 0.930220 0.068835
2.000212 0.119345 0.120454
2.027649 0.788814 0.122788
0.626010 0.242816 0.239616
0.908836 0.977056 0.187174
2.037782 0.301018 0.135393
2.000514 0.077327 0.105807
2.037639 0.231862 0.074891
0.991882 0.749206 0.020310
2.043692 0.901627 0.126913
2.041219 0.688146 0.137356
1.902756 0.213147 0.040157
2.033186 0.327317 0.104475
0.192364 0.612383 0.250010
0.032610 0.561241 0.249083
2.044269 0.818918 0.199550
2.001223 0.848056 0.050231
1.866891 0.129456 0.200717
2.012521 0.233298 0.045845
0.240550 0.980420 0.172844
2.030091 0.839346 0.098504
2.033268 0.354557 0.077770
2.041484 0.819601 0.133527
2.016896 0.735843 0.177114
2.005133 0.350592 0.093012
2.030378 0.211665 0.125291
2.051344 0.818365 0.128576
1.746382 0.039096 0.114774
2.015030 0.096685 0.090606
2.042048 0.398850 0.188016
0.396500 0.909532 0.241546
2.022922 0.372593 0.103430
1.810035 0.744632 0.215103
2.016049 0.756633 0.040487
2.020701 0.649097 0.095229
2.010562 0.904400 0.171377
0.044824 0.993200 0.222196
1.256070 0.499735 0.073597
0.086928 0.042815 0.006296
1.750958 0.249746 0.212477
2.032231 0.932595 0.160442
1.938056 0.060370 0.123656
2.029796 0.721484 0.189331
1.243493 0.938779 0.027189
2.022575 0.188149 0.135854
2.017201 0.681083 0.191017
2.023163 0.803616 0.100864
1.761345 0.098739 0.039320
1.444171 0.092734 0.223899
0.010376 0.504474 0.222508
2.015481 0.887887 0.167531
2.012309 0.059204 0.149143
2.024290 0.352007 0.073397
2.044852 0.258797 0.047845
2.004841 0.367351 0.200467
2.018896 0.681016 0.127061
0.653168 0.985193 0.101681
0.841008 0.484133 0.234081
2.018782 0.639498 0.119193
2.033252 0.732225 0.044826
1.997283 0.305350 0.041699
2.020581 0.271387 0.143559
2.029636 0.772421 0.161292
0.834878 0.978708 0.191208
0.683584 0.015651 0.101004
2.030579 0.775512 0.178289
2.041007 0.276005 0.046258
2.000271 0.289912 0.039032
2.030297 0.105648 0.171593
1.850636 0.882851 0.207140
2.007401 0.237211 0.132114
2.043957 0.792899 0.145899
1.366990 0.978522 0.086926
1.254535 0.976839 0.175601
0.898911 0.029797 0.162174
1.612576 0.286000 0.033526
0.036787 0.567410 0.248995
1.161249 0.784977 0.226561
2.031014 0.717976 0.184907
1.448521 0.970045 0.177430
2.015580 0.844944 0.092940
2.035106 0.799893 0.114166
1.480658 0.084561 0.225227
2.022126 0.726487 0.178634
2.027879 0.840318 0.184213
2.017479 0.630500 0.093234
1.446602 0.028117 0.168570
0.575401 0.029700 0.168187
0.038942 0.987753 0.129165
2.017105 0.149523 0.065801
2.002765 0.755692 0.135449
1.686465 0.767490 0.216573
2.024452 0.367358 0.155246
2.029788 0.686933 0.179488
0.053434 0.985833 0.006971
2.043170 0.614473 0.123196
2.022747 0.721939 0.186483
2.054804 0.758295 0.109029
2.041637 0.681193 0.088195
1.668147 0.896951 0.041527
1.923373 0.297358 0.207520
1.704116 0.953060 0.174399
0.212606 0.022936 0.080795
2.026112 0.916278 0.087320
1.997136 0.916704 0.072917
0.038863 0.989242 0.137402
2.043955 0.337547 0.127159
0.788690 0.815596 0.237062
2.014167 0.830135 0.092786
2.021179 0.297030 0.060840
2.006074 0.222603 0.150129
2.012553 0.718654 0.076826
0.153713 0.880250 0.246251
2.014067 0.221852 0.075742
2.022074 0.220839 0.125137
1.187854 0.025435 0.158470
2.024098 0.190148 0.166427
1.711472 0.102668 0.036667
2.031926 0.750208 0.100893
2.032816 0.780082 0.070591
0.708656 0.909630 0.019288
2.036882 0.229357 0.050515
0.826970 0.025394 0.192227
2.032852 0.230892 0.118425
0.012849 0.161146 0.233779
2.019598 0.843053 0.176573
2.016902 0.101517 0.145640
0.591951 0.473993 0.242031
2.045287 0.712677 0.129932
2.035427 0.694947 0.126864
2.048916 0.864810 0.125488
2.001647 0.913888 0.124021
1.649216 0.073585 0.041792
2.035264 0.224157 0.103852
2.025508 0.345656 0.154944
2.035546 0.726023 0.059531
2.008734 0.276993 0.174787
0.150683 0.027727 0.023710
2.014314 0.785718 0.158959
1.954625 0.410637 0.060764
1.459100 0.081065 0.024093
2.027677 0.625261 0.106097
2.002812 0.754347 0.144586
1.595642 0.032984 0.127721
2.012800 0.666294 0.074063
0.817088 0.551161 0.014890
0.947569 0.015904 0.097450
1.934972 0.357840 0.203584
2.009621 0.190728 0.054982
0.040385 0.705571 0.241589
0.779850 0.630478 0.014658
2.037639 0.183166 0.137945
1.706561 0.047372 0.169327
0.464374 0.970422 0.215193
2.030415 0.333994 0.097299
1.709654 0.679106 0.034079
2.021489 0.647323 0.134533
1.086255 0.956758 0.207726
0.953904 0.077836 0.020453
1.915505 0.674370 0.208632
2.017824 0.348008 0.065318
2.038313 0.328636 0.190803
2.017192 0.772864 0.111412
1.198672 0.502616 0.054230
2.022265 0.669826 0.040038
0.569927 0.981778 0.159260
1.441630 0.068695 0.212688
1.090039 0.117432 0.025001
2.022459 0.678012 0.204441
2.005690 0.712882 0.141472
1.032631 0.993472 0.143479
1.687226 0.962148 0.115662
2.019636 0.910267 0.135929
1.094898 0.209323 0.228657
2.006319 0.572720 0.097924
0.034051 0.995921 0.047316
0.327877 0.795493 0.005375
0.194100 0.623826 0.211486
2.007652 0.682386 0.138880
0.306090 0.618944 0.239282
2.005989 0.126293 0.114610
2.008474 0.747795 0.153841
2.001298 0.857592 0.150809
2.025124 0.119820 0.148109
0.646107 0.383688 0.013179
2.039586 0.412706 0.106171
2.024485 0.316321 0.073033
0.899622 0.841738 0.233864
2.013345 0.882962 0.090390
0.036858 0.188828 0.013960
2.015784 0.275097 0.093220
2.010821 0.308547 0.173000
2.033909 0.289244 0.112282
2.042875 0.331086 0.077792
2.039336 0.339690 0.068817
2.034917 0.195737 0.108191
2.013953 0.922460 0.103780
2.027577 0.749487 0.077519
2.000638 0.887062 0.082849
2.043238 0.860607 0.086299
1.753421 0.099900 0.038866
2.012521 0.933139 0.107317
2.021264 0.348509 0.201991
1.670630 0.145085 0.029201
2.036560 0.107947 0.066608
0.094687 0.964067 0.239476
2.018576 0.840891 0.076544
1.257005 0.867896 0.030988
1.757624 0.889623 0.211516
2.003428 0.277166 0.164066
2.040073 0.728954 0.132857
0.977422 0.382446 0.214320
1.057366 0.044443 0.034213
1.965138 0.701122 0.038117
2.038919 0.091718 0.151174
1.845909 0.170654 0.038344
2.010286 0.565693 0.109033
0.910730 0.455965 0.227112
1.212297 0.718920 0.180552
2.010992 0.147421 0.096275
2.023444 0.832276 0.209149
2.038118 0.748146 0.141266
1.831835 0.672636 0.215707
2.007343 0.252245 0.045028
2.038461 0.336184 0.102265
1.777911 0.955531 0.123978
1.160211 0.077950 0.027934
1.707621 0.941858 0.070886
2.036578 0.240857 0.056613
0.881232 0.469446 0.017345
1.805158 0.934380 0.081362
2.026656 0.128085 0.135971
2.011742 0.078111 0.152927
0.013667 0.509687 0.234535
2.005825 0.296214 0.042500
1.090855 0.165794 0.233241
2.020640 0.930446 0.117839
2.012230 0.680055 0.167305
2.024435 0.735181 0.039485
2.025570 0.769084 0.186028
1.780967 0.662254 0.035218
0.540451 0.982742 0.197286
0.039358 0.426447 0.016492
2.002534 0.716035 0.146029
0.029661 0.373176 0.240185
1.191113 0.038169 0.037037
2.028122 0.221336 0.119898
2.000288 0.313538 0.179206
0.013472 0.514015 0.241580
0.829693 0.394592 0.229544
0.791861 0.029118 0.042757
2.023364 0.091646 0.073414
0.007811 0.605221 -0.000325
2.022095 0.088833 0.073625
1.716112 0.643684 0.042181
1.751895 0.691609 0.031827
0.010776 0.279046 0.235916
2.048770 0.749451 0.090866
2.029164 0.787634 0.187305
1.489169 0.751205 0.037528
2.001214 0.102727 0.166548
1.000665 0.978080 0.065431
0.380009 0.133336 0.026020
2.016937 0.339622 0.074967
0.018953 0.890552 0.250145
2.000588 0.799573 0.125313
2.018788 0.585346 0.066433
1.809243 0.612719 0.202673
2.028930 0.271324 0.174884
1.829743 0.101465 0.044294
0.193350 0.982462 0.217332
2.026492 0.348990 0.140628
1.140025 0.944032 0.226521
2.033815 0.595950 0.076129
0.219408 0.010197 0.208498
2.031101 0.930411 0.137363
1.951258 0.864322 0.205489
1.759671 0.909386 0.043642
2.025588 0.792722 0.125310
2.036936 0.079405 0.138733
0.956289 0.969125 0.204369
2.006244 0.790524 0.087015
0.612370 0.025978 0.040591
0.573619 0.019742 0.163443
1.057533 0.289735 0.064962
0.018514 0.746606 0.010363
2.007610 0.172173 0.078813
1.857021 0.228250 0.214571
1.209707 0.492781 0.055533
0.358941 0.532227 0.229561
2.020352 0.301361 0.168629
1.630474 0.904044 0.035799
2.054257 0.245705 0.112442
1.065104 0.471563 0.106588
2.005327 0.901170 0.181384
1.647728 0.104750 0.215689
2.014286 0.350295 0.187820
1.980006 0.939761 0.139260
2.040402 0.096788 0.101012
2.001294 0.107314 0.184666
0.686331 0.032413 0.213082
2.038295 0.102904 0.177095
2.025195 0.408903 0.144709
1.227726 0.977243 0.086806
2.020001 0.799353 0.160508
2.012249 0.715509 0.135389
0.800740 0.985787 0.092931
0.034259 -0.000089 0.183998
2.032238 0.901429 0.052711
0.584937 0.482643 0.007748
2.047931 0.313367 0.104281
2.023425 0.371297 0.189176
2.033696 0.125638 0.135117
1.582821 0.767096 0.028628
1.750003 0.100882 0.211732
0.117436 0.985678 0.020764
2.001362 0.282336 0.081177
1.184347 0.222064 0.221242
2.016776 0.724579 0.168284
0.014660 0.012844 0.084101
2.007751 0.161367 0.097244
0.270627 0.958139 0.016260
2.021828 0.925834 0.076102
1.588660 0.068057 0.208178
1.979851 0.660522 0.205255
2.023007 0.116935 0.149028
2.001221 0.669073 0.192203
2.049318 0.245117 0.121517
1.616658 0.323286 0.210998
2.014259 0.206345 0.053412
1.708636 0.052582 0.174768
0.366735 0.989867 0.169485
2.017891 0.273142 0.089601
1.196675 0.045140 0.032803
2.001818 0.350240 0.144337
2.018226 0.826991 0.177203
1.224385 0.508082 0.190058
2.040798 0.271093 0.087862
2.039047 0.789668 0.048091
0.769700 0.084706 0.019120
1.193101 0.943727 0.220959
2.010548 0.695931 0.089083
1.984395 0.353194 0.196817
1.973644 0.582968 0.059038
2.024173 0.282589 0.075697
1.619083 0.769999 0.225386
2.025903 0.091580 0.162508
2.039833 0.740614 0.110457
2.045441 0.386358 0.068500
0.841713 0.030384 0.194933
2.035768 0.751377 0.149175
2.021132 0.167951 0.105210
2.030107 0.426089 0.134212
0.862313 0.573534 0.016121
2.017631 0.345764 0.201357
2.033975 0.332578 0.095046
2.024310 0.858399 0.143123
1.137027 0.197500 0.024633
2.036353 0.070023 0.119429
2.006043 0.826376 0.044697
2.033033 0.715423 0.127692
2.040083 0.091923 0.085418
2.023243 0.436303 0.110260
2.038732 0.267869 0.046259
2.022422 0.186151 0.198259
2.029531 0.103716 0.205389
2.015052 0.920555 0.112129
0.304784 0.617198 0.002910
0.109632 0.686014 0.247454
2.017961 0.096528 0.184175
1.742227 0.231351 0.030856
2.024277 0.380779 0.080066
0.395966 0.640086 0.011912
1.985352 0.715351 0.044202
1.660992 0.240030 0.220656
2.019767 0.325567 0.131726
2.010451 0.114133 0.153634
1.800674 0.355886 0.211529
0.575441 0.024770 0.040081
1.986094 0.863986 0.044940
2.008738 0.657800 0.178482
0.040886 0.572655 0.014134
0.973774 0.626590 0.220151
1.422010 0.024258 0.162591
1.343418 0.047272 0.214225
2.024197 0.296343 0.159639
1.351193 0.835488 0.021182
2.003979 0.189402 0.181230
0.047646 0.852974 -0.000133
1.548568 0.901247 0.222507
0.261610 0.953702 0.011587
0.144827 0.003851 0.207743
2.007821 0.839730 0.099613
1.967760 0.106933 0.197445
0.028160 0.374527 0.238764
1.629722 0.911822 0.036250
2.033046 0.667468 0.200239
1.260918 0.518758 0.127403
0.051964 0.940115 0.002410
2.017117 0.290534 0.208101
0.019125 0.387374 0.245312
2.042207 0.866436 0.076275
1.158102 0.970562 0.049892
2.005977 0.763890 0.090744
1.207471 0.496888 0.054072
1.101859 0.972429 0.051657
1.978273 0.408931 0.057598
1.960685 0.606348 0.202993
1.868280 0.934027 0.090894
1.828664 0.949239 0.109803
0.696427 0.977353 0.072393
0.637637 0.018378 0.056863
1.024785 0.022098 0.176460
2.019279 0.075744 0.157400
2.007864 0.166258 0.184835
2.007855 0.119610 0.200900
2.033492 0.829768 0.188287
2.009141 0.738372 0.125480
</DataArray>
</Points>
<PointData>
<DataArray NumberOfComponents='1' type='Int32' Name='ParticleType' format='ascii'>
1
1
1
1
1
1
1
1
1
1
1
1
1
1
1
1
1
1
1
1
1
1
1
1
1
1
1
1
1
1
1
1
1
1
1
1
1
1
1
1
1
1
1
1
1
1
1
1
1
1
1
1
1
1
1
1
1
1
1
1
1
1
1
1
1
1
1
1
1
1
1
1
1
1
1
1
1
1
1
1
1
1
1
1
1
1
1
1
1
1
1
1
1
1
1
1
1
1
1
1
1
1
1
1
1
1
1
1
1
1
1
1
1
1
1
1
1
1
1
1
1
1
1
1
1
1
1
1
1
1
1
1
1
1
1
1
1
1
1
1
1
1
1
1
1
1
1
1
1
1
1
1
1
1
1
1
1
1
1
1
1
1
1
1
1
1
1
1
1
1
1
1
1
1
1
1
1
1
1
1
1
1
1
1
1
1
1
1
1
1
1
1
1
1
1
1
1
1
1
1
1
1
1
1
1
1
1
1
1
1
1
1
1
1
1
1
1
1
1
1
1
1
1
1
1
1
1
1
1
1
1
1
1
1
1
1
1
1
1
1
1
1
1
1
1
1
1
1
1
1
1
1
1
1
1
1
1
1
1
1
1
1
1
1
1
1
1
1
1
1
1
1
1
1
1
1
1
1
1
1
1
1
1
1
1
1
1
1
1
1
1
1
1
1
1
1
1
1
1
1
1
1
1
1
1
1
1
1
1
1
1
1
1
1
1
1
1
1
1
1
1
1
1
1
1
1
1
1
1
1
1
1
1
1
1
1
1
1
1
1
1
1
1
1
1
1
1
1
1
1
1
1
1
1
1
1
1
1
1
1
1
1
1
1
1
1
1
1
1
1
1
1
1
1
1
1
1
1
1
1
1
1
1
1
1
1
1
1
1
1
1
1
1
1
1
1
1
1
1
1
1
1
1
1
1
1
1
1
1
1
1
1
1
1
1
1
1
1
1
1
1
1
1
1
1
1
1
1
1
1
1
1
1
1
1
1
1
1
1
1
1
1
1
1
1
1
1
1
1
1
1
1
1
1
1
1
1
1
1
1
1
1
1
1
1
1
1
1
1
1
1
1
1
1
1
1
1
1
1
1
1
1
1
1
1
1
1
1
1
1
1
1
1
1
1
1
1
1
1
1
</DataArray>
<DataArray NumberOfComponents='1' type='Int32' Name='ParticleID' format='ascii'>
0
1
2
3
4
5
6
7
8
9
10
11
12
13
14
15
16
17
18
19
20
21
22
23
24
25
26
27
28
29
30
31
32
33
34
35
36
37
38
39
40
41
42
43
44
45
46
47
48
49
50
51
52
53
54
55
56
57
58
59
60
61
62
63
64
65
66
67
68
69
70
71
72
73
74
75
76
77
78
79
80
81
82
83
84
85
86
87
88
89
90
91
92
93
94
95
96
97
98
99
100
101
102
103
104
105
106
107
108
109
110
111
112
113
114
115
116
117
118
119
120
121
122
123
124
125
126
127
128
129
130
131
132
133
134
135
136
137
138
139
140
141
142
143
144
145
146
147
148
149
150
151
152
153
154
155
156
157
158
159
160
161
162
163
164
165
166
167
168
169
170
171
172
173
174
175
176
177
178
179
180
181
182
183
184
185
186
187
188
189
190
191
192
193
194
195
196
197
198
199
200
201
202
203
204
205
206
207
208
209
210
211
212
213
214
215
216
217
218
219
220
221
222
223
224
225
226
227
228
229
230
231
232
233
234
235
236
237
238
239
240
241
242
243
244
245
246
247
248
249
250
251
252
253
254
255
256
257
258
259
260
261
262
263
264
265
266
267
268
269
270
271
272
273
274
275
276
277
278
279
280
281
282
283
284
285
286
287
288
289
290
291
292
293
294
295
296
297
298
299
300
301
302
303
304
305
306
307
308
309
310
311
312
313
314
315
316
317
318
319
320
321
322
323
324
325
326
327
328
329
330
331
332
333
334
335
336
337
338
339
340
341
342
343
344
345
346
347
348
349
350
351
352
353
354
355
356
357
358
359
360
361
362
363
364
365
366
367
368
369
370
371
372
373
374
375
376
377
378
379
380
381
382
383
384
385
386
387
388
389
390
391
392
393
394
395
396
397
398
399
400
401
402
403
404
405
406
407
408
409
410
411
412
413
414
415
416
417
418
419
420
421
422
423
424
425
426
427
428
429
430
431
432
433
434
435
436
437
438
439
440
441
442
443
444
445
446
447
448
449
450
451
452
453
454
455
456
457
458
459
460
461
462
463
464
465
466
467
468
469
470
471
472
473
474
475
476
477
478
479
480
481
482
483
484
485
486
487
488
489
490
491
492
493
494
495
496
497
498
499
</DataArray>
<DataArray NumberOfComponents='1' type='Int8' Name='IsActive' format='ascii'>
1
0
1
0
0
1
0
0
1
1
1
1
1
1
1
0
0
0
1
0
0
1
0
1
0
0
1
0
1
1
0
1
1
0
1
1
0
0
1
1
1
1
1
1
0
1
1
0
1
0
0
1
0
1
1
1
1
1
0
1
1
0
1
0
0
1
1
0
1
0
0
1
1
0
1
1
0
0
0
0
1
0
1
0
0
1
1
0
0
0
1
0
0
1
0
0
1
0
0
1
0
1
0
0
0
0
0
0
0
1
0
0
1
0
1
0
0
0
1
1
1
1
0
1
0
1
0
0
0
1
1
1
0
0
0
0
0
0
1
1
0
0
1
0
0
1
1
0
0
1
0
1
0
0
1
1
1
1
1
1
0
1
0
0
1
0
0
0
1
1
1
0
0
1
0
0
1
0
0
0
0
1
1
1
1
0
1
1
0
1
0
0
0
0
1
0
0
1
0
1
0
0
1
0
1
0
1
0
0
1
0
0
0
0
1
0
0
0
0
1
0
1
1
0
0
1
0
1
1
1
0
1
1
0
1
1
0
1
0
1
1
1
0
0
0
1
1
1
1
1
0
0
1
1
0
1
0
1
1
1
0
1
0
0
0
0
1
0
0
1
0
1
0
0
0
0
0
0
0
0
0
0
1
0
0
1
0
1
0
1
1
0
0
1
1
1
0
1
0
1
1
0
0
0
1
0
0
1
1
1
0
1
1
0
0
1
0
1
0
0
0
0
1
1
1
0
1
1
0
0
1
1
1
0
0
0
1
1
1
0
0
1
0
1
1
0
0
0
0
1
0
1
1
0
1
0
1
0
1
1
0
0
1
0
1
1
1
1
0
1
1
1
0
1
0
1
0
1
0
1
0
0
1
0
0
1
0
0
1
0
1
1
0
0
0
1
1
1
0
1
0
1
0
1
0
1
1
0
0
0
1
0
1
1
0
1
0
0
1
0
0
1
1
0
1
1
0
1
0
0
0
1
0
0
0
1
1
0
0
1
0
0
0
0
1
0
0
1
0
1
1
0
1
0
1
1
1
0
0
1
1
1
0
1
1
1
1
0
1
0
0
1
1
1
0
1
1
1
0
1
1
0
1
0
1
0
1
1
1
1
1
1
1
1
1
0
0
1
0
0
</DataArray>
<DataArray NumberOfComponents='1' type='Int32' Name='ParticleTetID' format='ascii'>
40693
-50400
86218
-69862
-102510
65261
-69112
-82730
7821
39908
53543
73336
44582
97874
57270
-93293
-91090
-74058
63839
-98831
-12127
36389
-98411
33471
-93293
-102840
67285
-91191
100560
55459
-34180
31180
32579
-39168
81745
32111
-69112
-42296
52058
96730
48779
51764
43314
85473
-90119
74629
94294
-93119
27680
-82225
-90337
80251
-25302
100560
75861
47668
52994
1000
-27681
103681
71011
-90337
97319
-57434
-90680
72893
73007
-27681
5252
-104925
-80727
73451
83922
-96019
80251
12876
-75610
-98411
-34180
-57434
78083
-57434
44958
-42296
-102510
66888
96204
-50400
-98306
-69112
15182
-93293
-104802
44341
-83399
-79063
99903
-90337
-79597
32495
-90622
95343
-96019
-58762
-86274
-93119
-58762
-98765
-86274
11577
-96731
-44272
104895
-24526
73059
-92602
-87306
-96325
98699
94432
100821
104550
-74058
104764
-39168
66256
-98765
-39168
-17626
18044
99487
100092
-96325
-104925
-58762
-64130
-96944
-104802
65486
41075
-95998
-92602
88015
-12127
-70156
54097
104133
-70156
-92373
-88016
-44138
16569
-83215
-102510
68171
34964
35370
39817
99903
51280
-39168
66403
-96019
-17626
72143
-39168
-90337
-74393
95572
105750
97137
-87514
-102840
56935
-93819
-39168
99126
-96354
-39168
-102840
-91248
39568
50548
69871
42654
-89958
89957
97137
-96849
40511
-96019
-92373
-85990
-91248
70045
-69112
-83215
87220
-85990
20429
-102840
-83820
65943
-64130
103848
-83215
92872
-90337
-98831
70976
-34180
-104802
-98210
-27681
72950
-69112
-98308
-91248
-61396
99302
-70156
2617
35952
-74393
-102840
95404
-82524
98835
85371
77057
-70433
69970
77344
-99021
102061
92344
-83399
18790
-104802
61478
100042
59696
-58762
-98308
-102510
84058
-90231
31998
41975
67646
-82225
-34180
75999
30264
-27681
23019
-84540
99980
65413
59088
-104802
1467
-42296
-93119
-98210
-42296
99184
-90131
-83399
92993
-96019
85474
-94130
-91191
-25302
-83399
-58762
-99021
-79211
-98411
-48492
-96019
15918
-79211
-96944
92288
-100353
93306
-96019
14354
7900
-61396
-34180
212
81730
103068
-98831
60635
-100422
81003
6395
-24687
-82730
-102840
21495
-90622
-83399
49229
36655
66911
-64130
105228
30240
-42296
-104925
100092
-88016
84547
-27681
-57434
-92602
-94146
30827
17000
74099
-34180
101063
71603
-83215
-91191
100092
39795
35929
-96731
-101355
-96731
18790
11437
98826
-98411
-94146
10617
-44138
83093
93188
-58762
-71594
-17626
-25092
9462
-61396
73026
35645
-96849
20720
-25092
66943
-27681
84994
31915
-17626
-98831
46564
-83820
64515
105750
67898
100743
-56272
7447
41636
7827
-91191
3139
-83215
55260
-96325
42063
-98308
5918
-98306
-44138
17893
-44138
-19405
94636
-70156
-34180
88978
-101044
-48492
25726
-94130
-98308
-42296
74278
49661
95769
-94130
5987
-93119
101509
-24687
46816
-89958
40863
42187
-42296
-42146
-83215
56237
-70433
102061
77068
-94130
87021
-99096
-69862
9269
-94130
-99911
74659
99814
-91248
96943
4275
-92373
15506
-104925
-102840
-24526
9357
-102840
-24687
-19405
74225
-96944
-83399
-98210
13525
-98831
-79597
-34180
-96731
-69914
-92373
-99721
-44138
-27681
74608
14135
-44138
41417
-24526
49106
30524
35516
-50400
-42296
72356
54854
14742
-42146
88021
76734
95806
37964
-95447
49673
-99721
-100561
850
82705
92637
-96019
19247
101063
3139
-42146
86768
99121
-91090
101063
-96019
63303
-98411
41636
79878
105470
57591
448
51674
43861
72789
84725
-104925
-99721
-44138
-90337
-102840
</DataArray>
<DataArray NumberOfComponents='3' type='Float32' Name='vels' format='ascii'>
18.610490 -0.793819 0.030020
22.746117 0.571945 -0.290697
0.165367 -0.002991 0.000099
20.081773 -0.217840 -0.277921
23.484112 -0.510887 0.083072
1.338106 -0.012983 0.001706
20.333378 0.277334 -0.621174
12.783111 0.221707 0.073535
18.005874 -1.840276 0.020432
22.969611 -1.281438 -0.012949
19.274753 5.549519 0.035766
9.989258 -0.052051 -0.000653
14.553504 -1.550762 -0.079236
4.474971 -0.835080 -0.000618
19.573078 -5.241645 -0.017288
20.644419 -0.244898 0.011251
14.087736 0.281257 1.252631
14.293141 1.904616 0.878634
20.376649 0.043547 0.018850
19.044396 -1.244907 -0.238396
21.835456 0.067503 1.640637
9.390507 -0.077001 0.000721
20.051412 -0.328575 -0.076616
6.408136 0.039725 0.016618
18.297037 -0.214221 0.115799
22.591256 -0.226395 0.244628
2.537866 0.044092 -0.008102
21.418610 0.522880 0.667956
0.214989 0.045767 -0.022541
8.994308 0.401871 0.071025
22.058982 -0.221339 0.905368
2.632060 -0.196565 0.000205
10.280789 0.224519 0.078580
19.420937 -0.419907 0.689956
12.596435 -0.419951 0.026661
14.975525 -0.579818 -0.285388
19.690416 0.183231 -1.354405
17.262796 -0.581290 -0.236368
12.462986 -1.732308 0.047806
12.071533 -1.208325 -0.717362
13.077107 -0.135576 0.095847
3.898637 -0.325673 0.001139
2.408759 -0.057643 0.001144
5.025338 -0.059034 -0.001568
23.253517 -0.506630 -0.243077
2.867819 0.000661 -0.001582
-0.023896 0.013931 -0.002385
21.234953 -0.478901 -0.021576
13.049424 -0.237894 -0.031866
15.336051 -0.375124 2.450828
15.641460 0.592641 2.478244
0.107731 -0.027720 0.010863
23.583462 0.705706 0.031841
0.063107 0.066855 -0.008342
2.549033 -1.850501 0.020962
10.250848 2.438331 -0.022709
19.191716 2.258558 0.040318
7.964627 5.839252 0.019517
16.294222 1.334800 -0.294998
15.213983 -0.025722 0.030861
15.535677 3.578801 -0.010666
15.971599 0.661878 2.362355
1.525255 -0.003680 0.014895
16.469972 -0.440812 0.460427
8.803361 -0.053175 -1.230980
0.626372 0.006145 -0.000118
19.396018 3.696908 0.020048
16.358776 2.099030 -0.512324
11.275159 1.124365 -0.055146
12.106804 0.099396 -0.173926
20.829917 -0.376475 0.351593
4.973978 -6.403098 -0.138621
15.151323 -0.212248 0.033199
21.624399 0.251894 -0.102345
0.000569 0.005821 0.000886
13.835681 0.059925 0.010966
18.270654 -0.489875 0.186874
16.029687 -0.488661 0.199500
22.453575 -0.519201 0.546982
20.858756 -0.561026 1.745228
11.060797 -0.282252 -0.006179
22.318605 -0.637696 0.060034
11.556884 -0.450433 0.090027
17.872999 -0.508012 -0.210598
21.544261 -0.576351 -0.237666
3.730572 -0.375240 0.000451
7.389752 0.209645 0.066911
22.850020 0.504740 0.291769
16.743318 -0.167094 -0.066923
20.405083 0.175823 -1.416689
6.547720 4.195130 -0.006933
18.397170 2.312845 0.926571
22.928140 -0.721532 0.020940
12.658130 0.948302 0.072785
21.674624 0.629290 -1.020716
0.117633 0.000420 0.000014
-0.106523 0.042016 0.007544
18.277976 1.459873 2.053854
15.193783 -0.200755 0.411678
13.345834 0.880175 -0.043367
9.911597 0.030293 -0.531683
4.077646 -0.002238 0.021210
16.604183 0.954922 -1.554912
16.518350 0.455337 -2.328386
22.200797 0.725471 -0.532589
19.328759 -0.349707 0.354440
19.388330 0.531497 -1.176200
23.505890 -0.017541 0.011079
21.587448 0.974728 -0.641169
10.257602 0.347232 0.030125
16.482712 -1.531327 -0.673981
20.251569 0.364379 1.295825
6.600414 0.040958 -0.015048
22.036278 0.624905 -0.469285
13.813435 -2.564239 -0.024093
10.498283 -0.075992 -0.761585
21.786999 -0.601339 -0.143358
14.298232 0.925327 0.629781
0.113513 0.001321 -0.003906
2.731477 -0.122520 -0.090610
0.051749 -0.000986 0.000783
0.485330 0.108034 -0.000260
14.099799 2.576252 1.169191
0.270356 -0.001516 -0.005137
17.437643 -0.326126 1.677305
13.966460 0.065450 -0.004872
23.130137 -0.019389 0.136113
16.798710 -0.409249 0.846982
21.975496 -0.398811 0.347033
7.264023 0.651883 -0.033761
15.901705 0.809602 -0.061416
-0.083627 0.029012 -0.006522
17.775444 0.811653 0.366037
14.614608 -2.401172 0.802102
16.323602 0.461840 -1.527500
20.101702 0.219511 -1.888051
10.340887 0.260235 0.538024
23.078656 -0.988561 -0.027553
4.062366 0.046232 0.020811
3.233986 -0.356241 -0.003016
22.910553 -0.665074 -0.024346
15.478941 0.434950 -2.683764
4.863912 0.146441 0.140251
23.086697 0.462772 0.127130
20.097993 -0.001831 0.998274
6.794525 0.457151 0.023048
2.331026 -0.007810 -0.011371
21.604291 0.016050 0.594368
20.440455 0.307652 -1.507826
3.309534 0.025848 -0.069147
16.746200 -1.534288 1.226030
11.095483 -0.473251 -0.060938
23.785807 0.531745 -0.031865
21.848852 0.420922 0.793156
1.738955 0.001409 -0.010581
17.931049 0.050869 0.054644
11.188206 -0.391275 0.034325
9.819106 6.160023 0.018647
0.017624 -0.014262 0.016634
15.510917 0.452950 -0.039512
17.330247 -0.352344 1.789258
15.009880 -0.299189 -0.156415
19.581049 0.422816 -0.371368
23.074533 -0.332614 -0.039117
13.673917 0.953838 0.009615
16.564731 -0.331065 1.203524
19.095386 0.410807 1.106184
21.597133 -0.714607 0.164443
15.827303 0.301521 -0.152787
0.167372 0.000068 0.001914
-0.065348 -0.002957 0.005845
18.889380 -0.021748 0.028150
23.744358 -0.623742 0.078356
12.481234 -4.234984 -0.020075
21.550093 0.597724 0.177560
19.931805 -0.620684 -0.104144
0.331855 0.000536 -0.001357
22.186483 -0.580909 0.085191
18.532700 -0.364004 0.898198
22.731125 -0.410106 -0.267865
16.903104 -0.287756 -3.000994
15.424638 -2.084972 0.077258
13.162349 0.829426 -0.138330
13.149931 -0.696877 -0.079169
7.087721 -0.024148 -0.004753
15.925088 1.660978 -1.064572
13.999739 0.407333 -0.167007
-0.124905 -0.000352 0.001590
22.474392 0.693944 0.051149
5.062586 1.110976 0.004927
16.990761 0.499263 -0.526326
17.556272 0.387056 -1.088772
22.424382 0.267650 -0.125181
19.438241 -0.645570 0.307630
1.100728 0.008918 0.000122
19.790404 0.145941 -0.245545
23.805036 0.246133 -0.090822
12.521969 -0.060363 0.030204
17.974424 -0.188307 1.097113
11.895955 1.398655 0.037382
22.916248 -0.253452 -0.514480
18.818351 0.349067 -1.391396
4.819156 0.232050 0.032443
15.899244 0.166904 -2.510908
8.992384 -0.337556 0.023281
23.480659 0.156312 -0.174877
-0.203062 0.023189 -0.001401
18.643998 0.568643 0.689326
18.384430 -0.878138 0.303210
2.823228 -0.085838 -0.000443
23.583081 -0.560089 0.024302
23.161558 -0.767744 -0.045548
20.291565 1.561776 -0.694303
16.401910 -0.321120 -0.053734
13.030544 1.171101 0.081153
21.410000 0.626257 0.310330
18.442322 0.652253 -0.220620
17.690202 -0.279277 -2.290119
18.769647 0.377517 0.667154
0.358570 -0.003278 -0.000600
17.750980 -0.020871 0.508239
15.572943 0.523485 0.175951
12.971733 0.662532 -0.028224
20.417662 -0.645471 0.231195
23.602854 -0.615112 0.038929
10.658447 0.388837 0.040958
18.576584 -0.501876 -0.358508
6.590590 1.005122 -0.014113
7.716381 -0.189466 -0.038732
9.148549 0.406821 -0.098226
6.917325 -0.024386 0.013341
0.044387 -0.034243 0.009675
4.243743 1.451304 0.006162
21.328316 0.562810 0.238438
14.087441 0.944713 -0.076092
2.829610 0.064647 0.054977
22.195289 0.732663 -0.247530
9.630186 -3.798422 0.008650
22.344953 -0.609651 0.782143
14.677464 0.342494 -0.064693
8.776889 -0.838505 -0.012614
12.302959 -0.877727 -0.080919
21.407858 0.824238 0.337188
17.297617 0.488402 2.433505
23.606339 -0.372745 -0.031862
3.930672 0.108285 0.259211
13.166489 -0.210343 -1.750043
4.589208 0.017142 -0.002978
18.189024 0.654197 -0.127153
15.336977 -1.511727 0.001645
14.328609 -0.354769 1.438157
21.838368 -0.661170 -0.191753
20.047327 1.061438 0.099919
7.269682 -0.169796 0.008861
15.580226 -0.323972 0.093963
11.472404 -2.417675 0.012116
21.053992 -0.422851 0.024730
-0.017038 0.000778 0.037571
6.311095 0.077149 -0.001064
12.128150 0.028717 0.021675
23.244983 -0.730652 -0.131282
3.858297 0.025787 0.000398
20.722970 -0.207133 -0.102217
22.750940 -0.531753 0.033055
20.545453 -0.083357 -0.102342
20.285490 -0.903266 0.046184
4.383400 -0.315306 0.002235
21.801124 0.497681 -0.757091
19.879728 0.548398 -0.714806
7.707885 2.124203 0.009110
18.274489 0.518023 -0.272507
-0.015820 0.000136 -0.005868
22.049778 0.519534 -0.195881
19.783170 0.573937 0.196976
23.087101 0.531150 0.110178
20.744513 0.554739 -1.416790
18.689961 0.464014 -2.153891
22.952633 -0.348073 -0.012363
15.385875 1.081334 -0.018862
20.312842 -0.228192 -0.737240
18.555870 0.457150 -0.153506
18.423548 1.307541 -2.021391
5.808705 0.547002 -0.020481
16.597472 0.870109 0.031602
13.153952 0.251382 1.635128
20.949869 4.844915 0.027209
15.862789 -1.859636 -1.900831
0.072812 0.000694 -0.000167
20.159521 0.339274 -0.414015
9.682646 0.028371 0.022240
12.074936 -1.278074 -0.012571
21.204620 0.562607 -0.004813
21.937366 -0.464106 0.805875
1.633650 -3.874926 0.215173
16.799910 -0.744059 -0.052921
17.771046 -0.965385 0.187711
17.251731 -2.118573 0.970715
11.524560 1.156087 0.022947