<VTKFile type='UnstructuredGrid' version='1.0' byte_order='LittleEndian' header_type='UInt64'>
<UnstructuredGrid>
<Piece NumberOfCells='500' NumberOfPoints='500'>
<Points>
<DataArray NumberOfComponents='3' type='Float32' Name='Position' format='ascii'>
1.633730 0.723202 0.228003
2.041913 0.322548 0.117272
0.351895 0.978220 0.221559
2.032789 0.817449 0.183718
2.006422 0.772777 0.106364
0.203144 0.192248 0.246519
2.021840 0.236634 0.075397
2.017995 0.818960 0.207017
1.670448 0.708297 0.225155
1.673661 0.817576 0.227564
1.928749 0.220390 0.036120
0.351318 0.005622 0.057693
1.532147 0.728229 0.221461
0.827791 0.201934 0.237107
1.962470 0.732519 0.214676
2.029884 0.896507 0.149988
2.019396 0.268186 0.204956
2.024177 0.929727 0.162309
1.597720 0.863448 0.218945
2.028493 0.103892 0.112536
2.053310 0.240382 0.149626
0.380951 0.105877 0.229078
2.013011 0.752185 0.079681
0.403186 0.991037 0.149382
2.010016 0.889759 0.129730
2.047684 0.745451 0.119795
1.338071 0.496036 0.093615
2.034071 0.303870 0.160488
0.044993 0.853044 0.002152
1.154825 0.961137 0.222276
2.049422 0.718082 0.151819
0.643621 0.298389 0.242710
1.275237 0.979735 0.187622
2.022542 0.715620 0.181877
1.811105 0.964458 0.129482
2.010632 0.639137 0.200410
2.032977 0.238094 0.074622
2.000648 0.118576 0.122908
2.023587 0.621514 0.041745
2.021349 0.083507 0.064647
1.482636 0.051069 0.217898
0.770645 0.252922 0.238793
0.505851 0.288459 0.007653
0.761472 0.034395 0.032494
2.007880 0.710244 0.115067
0.295269 0.526563 0.008007
0.028301 0.128901 0.020187
2.001995 0.747523 0.166309
2.009973 0.935019 0.106858
2.032963 0.684623 0.203324
2.034140 0.855777 0.176953
0.021991 0.668037 0.223582
2.008327 0.295468 0.130869
0.048479 0.851525 0.002727
0.961635 0.385250 0.227036
2.014178 0.336587 0.209485
1.171264 0.920334 0.231040
1.780398 0.387384 0.038003
2.020040 0.916381 0.117455
1.621562 0.034209 0.167153
1.813294 0.220380 0.027289
2.033928 0.852710 0.179680
0.273265 0.991849 0.195127
2.009942 0.676050 0.191148
2.019976 0.708230 0.042371
0.236279 0.723368 0.001492
1.715313 0.306386 0.029772
2.031539 0.915199 0.125560
1.948499 0.099597 0.202562
2.018562 0.097872 0.154440
2.032726 0.151930 0.157049
1.222258 0.240248 0.023795
1.653931 0.974728 0.116144
2.012379 0.857800 0.088540
0.040555 0.652992 0.242913
1.571918 0.728622 0.027765
2.006516 0.709664 0.056035
2.006612 0.733044 0.069206
2.032027 0.708061 0.156368
2.047422 0.659033 0.158041
0.686880 0.191098 0.213478
2.008623 0.671327 0.150335
2.017950 0.932096 0.066731
2.000212 0.119345 0.120454
2.027649 0.788814 0.122788
0.747712 0.226023 0.240392
1.126211 0.983744 0.187779
2.037782 0.301018 0.135393
2.000514 0.077327 0.105807
2.037639 0.231862 0.074891
1.207779 0.793995 0.020199
2.043692 0.901627 0.126913
2.041219 0.688146 0.137356
2.000429 0.215780 0.041495
2.033186 0.327317 0.104475
0.192364 0.612383 0.250010
0.034496 0.561711 0.249032
2.044269 0.818918 0.199550
2.001223 0.848056 0.050231
2.017651 0.129320 0.202862
2.012521 0.233298 0.045845
0.323046 0.980486 0.172733
2.030091 0.839346 0.098504
2.033268 0.354557 0.077770
2.041484 0.819601 0.133527
2.016896 0.735843 0.177114
2.005133 0.350592 0.093012
2.030378 0.211665 0.125291
2.051344 0.818365 0.128576
1.972808 0.044592 0.115513
2.015030 0.096685 0.090606
2.042048 0.398850 0.188016
0.463323 0.910077 0.241348
2.022922 0.372593 0.103430
2.023228 0.730447 0.214347
2.016049 0.756633 0.040487
2.020701 0.649097 0.095229
2.010562 0.904400 0.171377
0.049611 0.992422 0.222006
1.322977 0.499860 0.070607
0.093011 0.042948 0.006008
1.758493 0.251752 0.212231
2.032231 0.932595 0.160442
2.006229 0.058657 0.123712
2.029796 0.721484 0.189331
1.557894 0.925483 0.026983
2.022575 0.188149 0.135854
2.017201 0.681083 0.191017
2.023163 0.803616 0.100864
1.987856 0.109243 0.040603
1.721754 0.131724 0.223417
0.009069 0.505264 0.221954
2.015481 0.887887 0.167531
2.012309 0.059204 0.149143
2.024290 0.352007 0.073397
2.044852 0.258797 0.047845
2.004841 0.367351 0.200467
2.018896 0.681016 0.127061
0.767181 0.988539 0.101417
0.898117 0.477202 0.234149
2.018782 0.639498 0.119193
2.033252 0.732225 0.044826
2.006809 0.305431 0.041686
2.020581 0.271387 0.143559
2.029636 0.772421 0.161292
0.980811 0.982623 0.192003
0.801632 0.013660 0.100693
2.030579 0.775512 0.178289
2.041007 0.276005 0.046258
2.000271 0.289912 0.039032
2.030297 0.105648 0.171593
2.008805 0.883220 0.211431
2.007401 0.237211 0.132114
2.043957 0.792899 0.145899
1.604338 0.973382 0.087404
1.511804 0.972984 0.174131
1.156473 0.021919 0.163145
1.787712 0.354041 0.033746
0.036423 0.566995 0.249539
1.367952 0.784983 0.226757
2.031014 0.717976 0.184907
1.702114 0.960004 0.175962
2.015580 0.844944 0.092940
2.035106 0.799893 0.114166
1.666309 0.106433 0.224106
2.022126 0.726487 0.178634
2.027879 0.840318 0.184213
2.017479 0.630500 0.093234
1.689015 0.036940 0.167551
0.678763 0.030054 0.167955
0.038577 0.986975 0.128462
2.017105 0.149523 0.065801
2.002765 0.755692 0.135449
1.925430 0.725592 0.215879
2.024452 0.367358 0.155246
2.029788 0.686933 0.179488
0.063191 0.987188 0.007746
2.043170 0.614473 0.123196
2.022747 0.721939 0.186483
2.054804 0.758295 0.109029
2.041637 0.681193 0.088195
1.908015 0.875679 0.041553
2.000926 0.300494 0.207650
1.888614 0.946402 0.173643
0.292515 0.023875 0.080717
2.026112 0.916278 0.087320
2.030630 0.922772 0.068881
0.038976 0.989336 0.137573
2.043955 0.337547 0.127159
0.908478 0.844714 0.237859
2.014167 0.830135 0.092786
2.021179 0.297030 0.060840
2.006074 0.222603 0.150129
2.012553 0.718654 0.076826
0.175824 0.879789 0.245996
2.014067 0.221852 0.075742
2.022074 0.220839 0.125137
1.472463 0.026759 0.157622
2.024098 0.190148 0.166427
1.947104 0.118403 0.037199
2.031926 0.750208 0.100893
2.032816 0.780082 0.070591
0.827903 0.919964 0.018822
2.036882 0.229357 0.050515
0.984089 0.017429 0.192460
2.032852 0.230892 0.118425
0.193231 0.165154 0.227947
2.019598 0.843053 0.176573
2.016902 0.101517 0.145640
0.737763 0.468589 0.242100
2.045287 0.712677 0.129932
2.035427 0.694947 0.126864
2.048916 0.864810 0.125488
2.001647 0.913888 0.124021
1.865680 0.090828 0.042254
2.035264 0.224157 0.103852
2.025508 0.345656 0.154944
2.035546 0.726023 0.059531
2.008734 0.276993 0.174787
0.176381 0.027895 0.024463
2.014314 0.785718 0.158959
2.022817 0.412694 0.057546
1.713568 0.110876 0.025516
2.027677 0.625261 0.106097
2.002812 0.754347 0.144586
1.819281 0.041550 0.128004
2.012800 0.666294 0.074063
0.883640 0.573703 0.014609
1.150348 0.010401 0.096664
2.001944 0.360681 0.203661
2.009621 0.190728 0.054982
0.040279 0.705078 0.241088
0.886393 0.680022 0.014666
2.037639 0.183166 0.137945
1.869490 0.052757 0.168652
0.550661 0.971115 0.215465
2.030415 0.333994 0.097299
1.917349 0.641357 0.035250
2.021489 0.647323 0.134533
1.368598 0.957202 0.208012
1.166899 0.066026 0.019893
2.012652 0.670691 0.207114
2.017824 0.348008 0.065318
2.038313 0.328636 0.190803
2.017192 0.772864 0.111412
1.254480 0.502215 0.055980
2.022265 0.669826 0.040038
0.653571 0.983412 0.159642
1.737351 0.097798 0.212909
1.422514 0.114423 0.024207
2.022459 0.678012 0.204441
2.005690 0.712882 0.141472
1.118051 0.993194 0.144178
1.918030 0.954630 0.116694
2.019636 0.910267 0.135929
1.371738 0.203600 0.228645
2.006319 0.572720 0.097924
0.034733 0.996310 0.048996
0.366037 0.795814 0.005460
0.456906 0.625465 0.212069
2.007652 0.682386 0.138880
0.405879 0.620929 0.239048
2.005989 0.126293 0.114610
2.008474 0.747795 0.153841
2.001298 0.857592 0.150809
2.025124 0.119820 0.148109
0.744270 0.369571 0.013067
2.039586 0.412706 0.106171
2.024485 0.316321 0.073033
1.064580 0.877936 0.233686
2.013345 0.882962 0.090390
0.036733 0.188496 0.014270
2.015784 0.275097 0.093220
2.010821 0.308547 0.173000
2.033909 0.289244 0.112282
2.042875 0.331086 0.077792
2.039336 0.339690 0.068817
2.034917 0.195737 0.108191
2.013953 0.922460 0.103780
2.027577 0.749487 0.077519
2.000638 0.887062 0.082849
2.043238 0.860607 0.086299
1.995941 0.110391 0.039453
2.012521 0.933139 0.107317
2.021264 0.348509 0.201991
1.872865 0.172697 0.030241
2.036560 0.107947 0.066608
0.098397 0.964034 0.239796
2.018576 0.840891 0.076544
1.609024 0.825819 0.030424
1.974057 0.878310 0.210975
2.003428 0.277166 0.164066
2.040073 0.728954 0.132857
1.055025 0.267609 0.219347
1.335326 0.042450 0.034096
2.013732 0.699957 0.037390
2.038919 0.091718 0.151174
2.007386 0.174686 0.037130
2.010286 0.565693 0.109033
0.945814 0.432635 0.227692
1.474099 0.721842 0.184128
2.010992 0.147421 0.096275
2.023444 0.832276 0.209149
2.038118 0.748146 0.141266
2.007447 0.660923 0.215475
2.007343 0.252245 0.045028
2.038461 0.336184 0.102265
1.994078 0.949499 0.124413
1.485468 0.083395 0.028914
1.906551 0.934223 0.071120
2.036578 0.240857 0.056613
0.931673 0.447429 0.017086
2.019009 0.931509 0.079621
2.026656 0.128085 0.135971
2.011742 0.078111 0.152927
0.032957 0.510232 0.232308
2.005825 0.296214 0.042500
1.335601 0.161503 0.233710
2.020640 0.930446 0.117839
2.012230 0.680055 0.167305
2.024435 0.735181 0.039485
2.025570 0.769084 0.186028
1.994924 0.643985 0.036384
0.662400 0.985428 0.197517
0.039442 0.426413 0.016156
2.002534 0.716035 0.146029
0.029866 0.373630 0.240864
1.470371 0.040480 0.037832
2.028122 0.221336 0.119898
2.000288 0.313538 0.179206
0.013691 0.514053 0.241382
0.906766 0.344859 0.230001
0.928429 0.024825 0.042438
2.023364 0.091646 0.073414
0.007811 0.605221 -0.000325
2.022095 0.088833 0.073625
1.929323 0.610250 0.042738
1.997857 0.664154 0.033695
0.011613 0.278775 0.236066
2.048770 0.749451 0.090866
2.029164 0.787634 0.187305
1.661233 0.628163 0.038646
2.001214 0.102727 0.166548
1.249345 0.980989 0.065798
0.541935 0.130043 0.026057
2.016937 0.339622 0.074967
0.018953 0.890552 0.250145
2.000588 0.799573 0.125313
2.018788 0.585346 0.066433
2.010143 0.602290 0.201903
2.028930 0.271324 0.174884
2.010875 0.104483 0.044686
0.237326 0.981940 0.216656
2.026492 0.348990 0.140628
1.474399 0.941973 0.226786
2.033815 0.595950 0.076129
0.234200 0.010117 0.208836
2.031101 0.930411 0.137363
2.004660 0.865858 0.205160
1.933876 0.901012 0.043926
2.025588 0.792722 0.125310
2.036936 0.079405 0.138733
1.170623 0.974085 0.204557
2.006244 0.790524 0.087015
0.710593 0.024671 0.040661
0.575778 0.020428 0.164074
1.265547 0.289448 0.067669
0.017190 0.747160 0.010899
2.007610 0.172173 0.078813
2.007702 0.234239 0.216311
1.262204 0.491123 0.056937
0.498984 0.533154 0.229137
2.020352 0.301361 0.168629
1.873953 0.879269 0.035566
2.054257 0.245705 0.112442
1.109356 0.483848 0.106389
2.005327 0.901170 0.181384
1.849473 0.125806 0.215928
2.014286 0.350295 0.187820
2.016464 0.939830 0.139259
2.040402 0.096788 0.101012
2.001294 0.107314 0.184666
0.788331 0.029867 0.213794
2.038295 0.102904 0.177095
2.025195 0.408903 0.144709
1.490681 0.974507 0.087915
2.020001 0.799353 0.160508
2.012249 0.715509 0.135389
0.919650 0.991456 0.091116
0.034259 -0.000089 0.183998
2.032238 0.901429 0.052711
0.635755 0.482070 0.008318
2.047931 0.313367 0.104281
2.023425 0.371297 0.189176
2.033696 0.125638 0.135117
1.806658 0.687452 0.028578
1.966620 0.113098 0.209478
0.146908 0.986520 0.021491
2.001362 0.282336 0.081177
1.519080 0.246557 0.220229
2.016776 0.724579 0.168284
0.014219 0.012322 0.084316
2.007751 0.161367 0.097244
0.321581 0.959104 0.016730
2.021828 0.925834 0.076102
1.698757 0.078772 0.208251
2.012108 0.659642 0.207532
2.023007 0.116935 0.149028
2.001221 0.669073 0.192203
2.049318 0.245117 0.121517
1.798638 0.392773 0.210245
2.014259 0.206345 0.053412
1.868304 0.059024 0.173548
0.413308 0.989220 0.169363
2.017891 0.273142 0.089601
1.471250 0.047587 0.032783
2.001818 0.350240 0.144337
2.018226 0.826991 0.177203
1.276341 0.507732 0.190058
2.040798 0.271093 0.087862
2.039047 0.789668 0.048091
0.902080 0.071882 0.018868
1.465745 0.940703 0.219736
2.010548 0.695931 0.089083
2.015575 0.353923 0.199898
2.014640 0.582777 0.057398
2.024173 0.282589 0.075697
1.796071 0.714417 0.225842
2.025903 0.091580 0.162508
2.039833 0.740614 0.110457
2.045441 0.386358 0.068500
1.078831 0.019647 0.194747
2.035768 0.751377 0.149175
2.021132 0.167951 0.105210
2.030107 0.426089 0.134212
0.909540 0.603282 0.016235
2.017631 0.345764 0.201357
2.033975 0.332578 0.095046
2.024310 0.858399 0.143123
1.474212 0.209495 0.025279
2.036353 0.070023 0.119429
2.006043 0.826376 0.044697
2.033033 0.715423 0.127692
2.040083 0.091923 0.085418
2.023243 0.436303 0.110260
2.038732 0.267869 0.046259
2.022422 0.186151 0.198259
2.029531 0.103716 0.205389
2.015052 0.920555 0.112129
0.333753 0.617364 0.002973
0.166242 0.684492 0.247335
2.017961 0.096528 0.184175
2.003892 0.262647 0.030832
2.024277 0.380779 0.080066
0.508606 0.643295 0.012231
2.000152 0.715168 0.043558
1.836444 0.283144 0.220279
2.019767 0.325567 0.131726
2.010451 0.114133 0.153634
2.014853 0.372002 0.213192
0.643760 0.023534 0.039487
2.018938 0.868010 0.039757
2.008738 0.657800 0.178482
0.041301 0.572707 0.013727
1.058412 0.735425 0.224138
1.689821 0.033838 0.162530
1.537162 0.051788 0.214658
2.024197 0.296343 0.159639
1.603648 0.781299 0.022093
2.003979 0.189402 0.181230
0.047646 0.852974 -0.000133
1.760482 0.870744 0.221725
0.316340 0.953456 0.011539
0.150106 0.003681 0.208241
2.007821 0.839730 0.099613
2.028238 0.101937 0.203735
0.027715 0.374475 0.238901
1.861869 0.889662 0.036093
2.033046 0.667468 0.200239
1.326958 0.508962 0.126968
0.061302 0.939511 0.002612
2.017117 0.290534 0.208101
0.018464 0.388295 0.245590
2.042207 0.866436 0.076275
1.475875 0.965811 0.051463
2.005977 0.763890 0.090744
1.258392 0.496504 0.056153
1.395625 0.972539 0.051360
2.019777 0.409893 0.057595
2.007231 0.605300 0.202884
2.003610 0.932416 0.091151
2.013677 0.949706 0.108499
0.833169 0.980054 0.072234
0.748906 0.016286 0.056543
1.230787 0.019303 0.177953
2.019279 0.075744 0.157400
2.007864 0.166258 0.184835
2.007855 0.119610 0.200900
2.033492 0.829768 0.188287
2.009141 0.738372 0.125480
</DataArray>
</Points>
<PointData>
<DataArray NumberOfComponents='1' type='Int32' Name='ParticleType' format='ascii'>
1
1
1
1
1
1
1
1
1
1
1
1
1
1
1
1
1
1
1
1
1
1
1
1
1
1
1
1
1
1
1
1
1
1
1
1
1
1
1
1
1
1
1
1
1
1
1
1
1
1
1
1
1
1
1
1
1
1
1
1
1
1
1
1
1
1
1
1
1
1
1
1
1
1
1
1
1
1
1
1
1
1
1
1
1
1
1
1
1
1
1
1
1
1
1
1
1
1
1
1
1
1
1
1
1
1
1
1
1
1
1
1
1
1
1
1
1
1
1
1
1
1
1
1
1
1
1
1
1
1
1
1
1
1
1
1
1
1
1
1
1
1
1
1
1
1
1
1
1
1
1
1
1
1
1
1
1
1
1
1
1
1
1
1
1
1
1
1
1
1
1
1
1
1
1
1
1
1
1
1
1
1
1
1
1
1
1
1
1
1
1
1
1
1
1
1
1
1
1
1
1
1
1
1
1
1
1
1
1
1
1
1
1
1
1
1
1
1
1
1
1
1
1
1
1
1
1
1
1
1
1
1
1
1
1
1
1
1
1
1
1
1
1
1
1
1
1
1
1
1
1
1
1
1
1
1
1
1
1
1
1
1
1
1
1
1
1
1
1
1
1
1
1
1
1
1
1
1
1
1
1
1
1
1
1
1
1
1
1
1
1
1
1
1
1
1
1
1
1
1
1
1
1
1
1
1
1
1
1
1
1
1
1
1
1
1
1
1
1
1
1
1
1
1
1
1
1
1
1
1
1
1
1
1
1
1
1
1
1
1
1
1
1
1
1
1
1
1
1
1
1
1
1
1
1
1
1
1
1
1
1
1
1
1
1
1
1
1
1
1
1
1
1
1
1
1
1
1
1
1
1
1
1
1
1
1
1
1
1
1
1
1
1
1
1
1
1
1
1
1
1
1
1
1
1
1
1
1
1
1
1
1
1
1
1
1
1
1
1
1
1
1
1
1
1
1
1
1
1
1
1
1
1
1
1
1
1
1
1
1
1
1
1
1
1
1
1
1
1
1
1
1
1
1
1
1
1
1
1
1
1
1
1
1
1
1
1
1
1
1
1
1
1
1
1
1
1
1
1
1
1
1
1
1
1
1
1
1
1
1
1
1
1
1
1
1
1
1
1
1
</DataArray>
<DataArray NumberOfComponents='1' type='Int32' Name='ParticleID' format='ascii'>
0
1
2
3
4
5
6
7
8
9
10
11
12
13
14
15
16
17
18
19
20
21
22
23
24
25
26
27
28
29
30
31
32
33
34
35
36
37
38
39
40
41
42
43
44
45
46
47
48
49
50
51
52
53
54
55
56
57
58
59
60
61
62
63
64
65
66
67
68
69
70
71
72
73
74
75
76
77
78
79
80
81
82
83
84
85
86
87
88
89
90
91
92
93
94
95
96
97
98
99
100
101
102
103
104
105
106
107
108
109
110
111
112
113
114
115
116
117
118
119
120
121
122
123
124
125
126
127
128
129
130
131
132
133
134
135
136
137
138
139
140
141
142
143
144
145
146
147
148
149
150
151
152
153
154
155
156
157
158
159
160
161
162
163
164
165
166
167
168
169
170
171
172
173
174
175
176
177
178
179
180
181
182
183
184
185
186
187
188
189
190
191
192
193
194
195
196
197
198
199
200
201
202
203
204
205
206
207
208
209
210
211
212
213
214
215
216
217
218
219
220
221
222
223
224
225
226
227
228
229
230
231
232
233
234
235
236
237
238
239
240
241
242
243
244
245
246
247
248
249
250
251
252
253
254
255
256
257
258
259
260
261
262
263
264
265
266
267
268
269
270
271
272
273
274
275
276
277
278
279
280
281
282
283
284
285
286
287
288
289
290
291
292
293
294
295
296
297
298
299
300
301
302
303
304
305
306
307
308
309
310
311
312
313
314
315
316
317
318
319
320
321
322
323
324
325
326
327
328
329
330
331
332
333
334
335
336
337
338
339
340
341
342
343
344
345
346
347
348
349
350
351
352
353
354
355
356
357
358
359
360
361
362
363
364
365
366
367
368
369
370
371
372
373
374
375
376
377
378
379
380
381
382
383
384
385
386
387
388
389
390
391
392
393
394
395
396
397
398
399
400
401
402
403
404
405
406
407
408
409
410
411
412
413
414
415
416
417
418
419
420
421
422
423
424
425
426
427
428
429
430
431
432
433
434
435
436
437
438
439
440
441
442
443
444
445
446
447
448
449
450
451
452
453
454
455
456
457
458
459
460
461
462
463
464
465
466
467
468
469
470
471
472
473
474
475
476
477
478
479
480
481
482
483
484
485
486
487
488
489
490
491
492
493
494
495
496
497
498
499
</DataArray>
<DataArray NumberOfComponents='1' type='Int8' Name='IsActive' format='ascii'>
1
0
1
0
0
1
0
0
1
1
1
1
1
1
1
0
0
0
1
0
0
1
0
1
0
0
1
0
1
1
0
1
1
0
1
0
0
0
0
0
1
1
1
1
0
1
1
0
0
0
0
1
0
1
1
0
1
1
0
1
1
0
1
0
0
1
1
0
1
0
0
1
1
0
1
1
0
0
0
0
1
0
0
0
0
1
1
0
0
0
1
0
0
0
0
0
1
0
0
0
0
1
0
0
0
0
0
0
0
1
0
0
1
0
1
0
0
0
1
1
1
1
0
0
0
1
0
0
0
1
1
1
0
0
0
0
0
0
1
1
0
0
0
0
0
1
1
0
0
0
0
0
0
0
1
1
1
1
1
1
0
1
0
0
1
0
0
0
1
1
1
0
0
1
0
0
1
0
0
0
0
1
0
1
1
0
0
1
0
1
0
0
0
0
1
0
0
1
0
1
0
0
1
0
1
0
1
0
0
1
0
0
0
0
1
0
0
0
0
1
0
0
1
0
0
1
0
1
1
0
0
1
1
0
1
1
0
1
0
1
1
0
0
0
0
1
0
1
1
1
0
0
1
1
0
1
0
1
1
1
0
1
0
0
0
0
1
0
0
1
0
1
0
0
0
0
0
0
0
0
0
0
1
0
0
1
0
1
0
1
1
0
0
1
1
0
0
0
0
1
1
0
0
0
0
0
0
1
1
1
0
1
0
0
0
1
0
1
0
0
0
0
1
1
1
0
1
1
0
0
1
1
1
0
0
0
1
1
1
0
0
1
0
1
1
0
0
0
0
1
0
0
1
0
1
0
1
0
0
1
0
0
1
0
1
1
1
1
0
0
1
1
0
1
0
1
0
1
0
0
0
0
1
0
0
1
0
0
1
0
0
1
0
0
0
1
1
1
0
1
0
1
0
1
0
1
0
0
0
0
1
0
1
1
0
1
0
0
1
0
0
1
1
0
0
0
0
1
0
0
0
1
0
0
0
1
0
0
0
1
0
0
0
0
0
0
0
0
0
1
1
0
1
0
1
0
1
0
0
1
1
0
0
1
1
1
1
0
1
0
0
1
1
1
0
0
1
1
0
1
1
0
1
0
1
0
1
1
0
0
0
0
1
1
1
0
0
0
0
0
</DataArray>
<DataArray NumberOfComponents='1' type='Int32' Name='ParticleTetID' format='ascii'>
101017
-50400
70468
-69862
-102510
103634
-69112
-82730
67496
27635
47234
45652
44368
105767
104235
-93293
-91090
-74058
19243
-98831
-12127
100304
-98411
25226
-93293
-102840
30124
-91191
100560
63907
-34180
51764
36972
-39168
91268
-81615
-69112
-42296
-100758
-96731
25681
62023
103514
47309
-90119
31105
94294
-93119
-79211
-82225
-90337
80251
-25302
89738
48278
-96944
91334
102368
-27681
73246
47258
-90337
20471
-57434
-90680
72893
50658
-27681
17233
-104925
-80727
11525
35028
-96019
80251
89721
-75610
-98411
-34180
-57434
15547
-57434
-89958
-42296
-102510
37277
80665
-50400
-98306
-69112
43481
-93293
-104802
-99907
-83399
-79063
99903
-90337
-79597
-82515
-90622
13287
-96019
-58762
-86274
-93119
-58762
-98765
-86274
95074
-96731
-44272
33411
-24526
-82225
-92602
-87306
-96325
98699
77177
101411
104549
-74058
-98831
-39168
16763
-98765
-39168
-17626
96892
56730
100092
-96325
-104925
-58762
-64130
-96944
-104802
18382
5695
-95998
-92602
-88016
-12127
-70156
46150
6620
-70156
-92373
-88016
-44138
-105710
-83215
-102510
102671
78935
91701
38451
99903
78953
-39168
89909
-96019
-17626
42063
-39168
-90337
-74393
8429
12026
97137
-87514
-102840
48572
-93819
-39168
99809
-96354
-39168
-102840
-91248
32533
-91090
51918
105347
-89958
-89958
97137
-96849
92993
-96019
-92373
-85990
-91248
95611
-69112
-83215
58392
-85990
94456
-102840
-83820
84358
-64130
79891
-83215
103634
-90337
-98831
100667
-34180
-104802
-98210
-27681
62510
-69112
-98308
-91248
-61396
92108
-70156
-46315
19459
-74393
-102840
83600
-82524
80990
98193
-96944
-70433
69970
69118
-99021
105656
14070
-83399
90902
-104802
58544
36655
-81615
-58762
-98308
-102510
60845
-90231
41020
49661
93589
-82225
-34180
69289
10090
-27681
14595
-84540
99980
51311
2656
-104802
31530
-42296
-93119
-98210
-42296
95553
-90131
-83399
11684
-96019
85474
-94130
-91191
-25302
-83399
-58762
-99021
-79211
-98411
-48492
-96019
96892
-79211
-96944
69651
-100353
93306
-96019
67065
105709
-61396
-34180
10370
67007
-90680
-98831
-70433
-100422
35629
68580
-24687
-82730
-102840
-81615
-90622
-83399
11612
56652
44958
-64130
64188
-89958
-42296
-104925
76850
-88016
48190
-27681
-57434
-92602
-94146
90230
37697
74099
-34180
101063
75922
-83215
-91191
100092
65818
77385
-96731
-101355
-96731
11624
90230
98826
-98411
-94146
35564
-44138
100942
50528
-58762
-71594
-17626
-25092
-78226
-61396
-96893
91618
-96849
78032
-25092
66943
-27681
-99052
32533
-17626
-98831
63907
-83820
78654
105750
13175
100743
-56272
-82325
76280
40196
-91191
78911
-83215
45650
-96325
97945
-98308
-43214
-98306
-44138
105712
-44138
-19405
56408
-70156
-34180
68541
-101044
-48492
26528
-94130
-98308
-42296
65500
17233
101296
-94130
13746
-93119
101509
-24687
34844
-89958
101521
-81615
-42296
-42146
-83215
17321
-70433
105657
27941
-94130
75922
-99096
-69862
44806
-94130
-99911
72305
17485
-91248
-96944
-25092
-92373
59836
-104925
-102840
-24526
95735
-102840
-24687
-19405
104919
-96944
-83399
-98210
52928
-98831
-79597
-34180
-96731
-69914
-92373
-99721
-44138
-27681
53417
78397
-44138
-101289
-24526
68703
-90680
34206
-50400
-42296
-96944
85473
-105531
-42146
88021
56580
105757
16574
-95447
10907
-99721
-100561
10426
41669
100376
-96019
-44138
101063
78911
-42146
53414
99121
-91090
101063
-96019
85279
-98411
76280
57013
-46315
-78226
-79211
-79211
89992
80746
79760
-104925
-99721
-44138
-90337
-102840
</DataArray>
<DataArray NumberOfComponents='3' type='Float32' Name='vels' format='ascii'>
7.285780 -3.795127 -0.008896
22.746117 0.571945 -0.290697
0.714799 0.004149 -0.001502
20.081773 -0.217840 -0.277921
23.484112 -0.510887 0.083072
0.195492 -0.000100 0.000128
20.333378 0.277334 -0.621174
12.783111 0.221707 0.073535
8.225694 -3.812584 0.004885
12.092684 -3.299218 0.008522
11.366347 0.616726 0.081562
11.446021 -0.070072 -0.022250
15.442841 -8.139898 -0.052679
4.275832 -1.346335 -0.001735
10.764458 -0.305825 -0.132737
20.644419 -0.244898 0.011251
14.087736 0.281257 1.252631
14.293141 1.904616 0.878634
22.471517 -4.482316 -0.026840
19.044396 -1.244907 -0.238396
21.835456 0.067503 1.640637
10.635322 -0.113673 0.021839
20.051412 -0.328575 -0.076616
2.305067 -0.001478 0.004264
18.297037 -0.214221 0.115799
22.591256 -0.226395 0.244628
5.396274 0.453923 -0.131797
21.418610 0.522880 0.667956
0.199649 0.054981 -0.017462
10.703508 0.177773 0.019005
22.058982 -0.221339 0.905368
2.611787 -0.284017 0.000072
16.099813 -0.015762 0.043564
19.420937 -0.419907 0.689956
9.736822 -0.247341 -0.021446
9.873437 -0.276749 0.223623
19.690416 0.183231 -1.354405
17.262796 -0.581290 -0.236368
13.020581 -0.450925 -1.719911
13.718675 -1.653544 -1.157650
11.204158 0.307206 -0.039051
15.039968 -3.310946 -0.007814
2.749230 -0.123422 -0.000751
5.712484 -0.116449 -0.071087
23.253517 -0.506630 -0.243077
2.817629 0.011258 -0.000077
-0.029496 0.012861 -0.002392
21.234953 -0.478901 -0.021576
16.783738 0.725048 0.022270
15.336051 -0.375124 2.450828
15.641460 0.592641 2.478244
-0.051780 -0.028413 0.006309
23.583462 0.705706 0.031841
0.865785 -0.098817 0.057714
1.975767 -3.276271 0.074612
12.898903 0.342379 1.238865
19.569763 0.443782 0.010994
10.109121 1.895203 0.012205
16.294222 1.334800 -0.294998
12.171003 0.525373 -0.059364
9.486700 1.437399 -0.000335
15.971599 0.661878 2.362355
1.610999 0.006371 -0.004185
16.469972 -0.440812 0.460427
8.803361 -0.053175 -1.230980
0.575223 0.005343 -0.000149
7.612928 2.663019 0.017276
16.358776 2.099030 -0.512324
13.224951 0.452913 -0.147700
12.106804 0.099396 -0.173926
20.829917 -0.376475 0.351593
11.887034 2.218890 0.137858
9.645542 -0.284601 0.030267
21.624399 0.251894 -0.102345
0.025065 0.005573 0.001048
6.346362 -4.458514 0.023409
18.270654 -0.489875 0.186874
16.029687 -0.488661 0.199500
22.453575 -0.519201 0.546982
20.858756 -0.561026 1.745228
11.745718 -1.288469 -0.004767
22.318605 -0.637696 0.060034
12.451290 1.606906 -1.239628
17.872999 -0.508012 -0.210598
21.544261 -0.576351 -0.237666
3.775861 -0.792062 -0.000768
10.122490 0.072280 -0.014524
22.850020 0.504740 0.291769
16.743318 -0.167094 -0.066923
20.405083 0.175823 -1.416689
12.813956 -0.861027 0.030863
18.397170 2.312845 0.926571
22.928140 -0.721532 0.020940
1.092060 -0.057378 -0.099089
21.674624 0.629290 -1.020716
0.117633 0.000420 0.000014
0.054230 0.028743 0.015760
18.277976 1.459873 2.053854
15.193783 -0.200755 0.411678
8.382616 -1.056661 1.118900
9.911597 0.030293 -0.531683
3.903943 0.004783 -0.001872
16.604183 0.954922 -1.554912
16.518350 0.455337 -2.328386
22.200797 0.725471 -0.532589
19.328759 -0.349707 0.354440
19.388330 0.531497 -1.176200
23.505890 -0.017541 0.011079
21.587448 0.974728 -0.641169
10.408939 0.083929 0.078064
16.482712 -1.531327 -0.673981
20.251569 0.364379 1.295825
2.282056 0.022126 -0.002358
22.036278 0.624905 -0.469285
14.124127 -0.284270 -0.217126
10.498283 -0.075992 -0.761585
21.786999 -0.601339 -0.143358
14.298232 0.925327 0.629781
0.246731 0.001259 -0.003744
4.685975 0.027493 -0.233196
0.959243 -0.011072 -0.004490
0.228626 0.053349 -0.000097
14.099799 2.576252 1.169191
13.357897 -0.648771 -0.039844
17.437643 -0.326126 1.677305
22.199559 -2.465151 0.004017
23.130137 -0.019389 0.136113
16.798710 -0.409249 0.846982
21.975496 -0.398811 0.347033
10.264928 -0.421431 0.097575
9.966806 1.574876 -0.017193
0.092223 0.035210 -0.014483
17.775444 0.811653 0.366037
14.614608 -2.401172 0.802102
16.323602 0.461840 -1.527500
20.101702 0.219511 -1.888051
10.340887 0.260235 0.538024
23.078656 -0.988561 -0.027553
16.176350 0.972506 -0.014051
2.047884 -0.389679 -0.003838
22.910553 -0.665074 -0.024346
15.478941 0.434950 -2.683764
3.843808 0.025786 -0.011749
23.086697 0.462772 0.127130
20.097993 -0.001831 0.998274
7.690092 0.180191 0.016624
4.663592 -0.079138 0.004569
21.604291 0.016050 0.594368
20.440455 0.307652 -1.507826
3.309534 0.025848 -0.069147
16.746200 -1.534288 1.226030
10.253146 0.947459 1.119102
23.785807 0.531745 -0.031865
21.848852 0.420922 0.793156
9.247168 -0.356018 0.069357
11.924187 -0.233497 -0.069706
13.586508 -0.116680 0.036965
9.704756 2.027083 0.029379
-0.062982 -0.006270 0.011241
14.215862 1.692016 0.087677
17.330247 -0.352344 1.789258
12.388601 -0.623277 -0.098095
19.581049 0.422816 -0.371368
23.074533 -0.332614 -0.039117
5.508986 0.690125 -0.005286
16.564731 -0.331065 1.203524
19.095386 0.410807 1.106184
21.597133 -0.714607 0.164443
6.031632 0.116837 -0.008555
7.338836 -0.141387 -0.000576
-0.079842 -0.002575 0.008347
18.889380 -0.021748 0.028150
23.744358 -0.623742 0.078356
10.865991 -0.794207 -0.085570
21.550093 0.597724 0.177560
19.931805 -0.620684 -0.104144
0.424580 0.002027 -0.001225
22.186483 -0.580909 0.085191
18.532700 -0.364004 0.898198
22.731125 -0.410106 -0.267865
16.903104 -0.287756 -3.000994
11.519577 -0.581435 0.065003
14.810948 0.363075 0.196271
10.769284 -0.330616 -0.091886
2.461050 -0.004295 -0.007203
15.925088 1.660978 -1.064572
13.425174 2.439846 -1.661108
0.024937 -0.001640 -0.007599
22.474392 0.693944 0.051149
5.734487 1.476431 0.008527
16.990761 0.499263 -0.526326
17.556272 0.387056 -1.088772
22.424382 0.267650 -0.125181
19.438241 -0.645570 0.307630
1.104261 0.007908 -0.000273
19.790404 0.145941 -0.245545
23.805036 0.246133 -0.090822
14.996626 0.306457 -0.054747
17.974424 -0.188307 1.097113
12.921457 0.491968 0.135167
22.916248 -0.253452 -0.514480
18.818351 0.349067 -1.391396
7.211683 0.828149 0.039480
15.899244 0.166904 -2.510908
8.078521 -0.209879 -0.014138
23.480659 0.156312 -0.174877
4.154387 -0.039854 0.007430
18.643998 0.568643 0.689326
18.384430 -0.878138 0.303210
10.257381 -0.281576 -0.005173
23.583081 -0.560089 0.024302
23.161558 -0.767744 -0.045548
20.291565 1.561776 -0.694303
16.401910 -0.321120 -0.053734
12.070288 0.727915 0.045816
21.410000 0.626257 0.310330
18.442322 0.652253 -0.220620
17.690202 -0.279277 -2.290119
18.769647 0.377517 0.667154
1.060467 -0.006942 0.001443
17.750980 -0.020871 0.508239
17.540848 0.458101 -1.060460
11.579644 0.992574 0.047279
20.417662 -0.645471 0.231195
23.602854 -0.615112 0.038929
10.965333 0.331595 -0.002521
18.576584 -0.501876 -0.358508
2.360345 1.189100 -0.001072
7.137495 0.010082 0.010180
13.702585 0.396953 0.289287
6.917325 -0.024386 0.013341
-0.148311 -0.030914 0.003804
5.925735 4.089555 -0.009614
21.328316 0.562810 0.238438
4.522162 0.106075 -0.000320
2.933250 0.027886 0.005333
22.195289 0.732663 -0.247530
9.999077 -0.533738 0.090170
22.344953 -0.609651 0.782143
12.810980 -0.056158 -0.007975
9.953147 -0.095281 -0.033701
15.872573 -0.624415 -0.376809
21.407858 0.824238 0.337188
17.297617 0.488402 2.433505
23.606339 -0.372745 -0.031862
2.525436 -0.004053 -0.016625
13.166489 -0.210343 -1.750043
0.947244 0.003089 -0.005881
22.250460 3.133013 0.024527
25.757567 0.714986 -0.002054
14.328609 -0.354769 1.438157
21.838368 -0.661170 -0.191753
4.517212 0.013714 0.038690
10.895158 -0.252945 0.059991
15.580226 -0.323972 0.093963
14.600071 -0.706319 0.028953
21.053992 -0.422851 0.024730
0.027866 0.001809 0.043953
1.811267 0.025771 0.000154
9.346593 0.233410 -0.001482
23.244983 -0.730652 -0.131282
3.948263 0.076240 -0.000012
20.722970 -0.207133 -0.102217
22.750940 -0.531753 0.033055
20.545453 -0.083357 -0.102342
20.285490 -0.903266 0.046184
10.575726 -1.858021 -0.001142
21.801124 0.497681 -0.757091
19.879728 0.548398 -0.714806
11.091470 1.519092 0.007610
18.274489 0.518023 -0.272507
0.049782 0.005987 -0.007910
22.049778 0.519534 -0.195881
19.783170 0.573937 0.196976
23.087101 0.531150 0.110178
20.744513 0.554739 -1.416790
18.689961 0.464014 -2.153891
22.952633 -0.348073 -0.012363
15.385875 1.081334 -0.018862
20.312842 -0.228192 -0.737240
18.555870 0.457150 -0.153506
18.423548 1.307541 -2.021391
12.808887 -0.504289 -0.106843
16.597472 0.870109 0.031602
13.153952 0.251382 1.635128
9.577381 0.748125 0.030871
15.862789 -1.859636 -1.900831
0.217558 0.000301 -0.000576
20.159521 0.339274 -0.414015
14.858962 -4.233842 0.020024
10.379896 0.193186 -0.178285
21.204620 0.562607 -0.004813
21.937366 -0.464106 0.805875
9.570514 -8.366478 0.308329
13.107106 0.023730 -0.026582