<VTKFile type='UnstructuredGrid' version='1.0' byte_order='LittleEndian' header_type='UInt64'>
<UnstructuredGrid>
<Piece NumberOfCells='500' NumberOfPoints='500'>
<Points>
<DataArray NumberOfComponents='3' type='Float32' Name='Position' format='ascii'>
1.558523 0.762795 0.227798
2.041913 0.322548 0.117272
0.326457 0.977668 0.221407
2.032789 0.817449 0.183718
2.006422 0.772777 0.106364
0.172638 0.192354 0.245970
2.021840 0.236634 0.075397
2.017995 0.818960 0.207017
1.582573 0.753726 0.225086
1.569529 0.846300 0.227477
1.802712 0.208456 0.035851
0.311415 0.006227 0.058181
1.353756 0.774594 0.221870
0.786626 0.213613 0.237572
1.889828 0.736265 0.215300
2.029884 0.896507 0.149988
2.019396 0.268186 0.204956
2.024177 0.929727 0.162309
1.400706 0.890328 0.219280
2.028493 0.103892 0.112536
2.053310 0.240382 0.149626
0.294819 0.106540 0.229238
2.013011 0.752185 0.079681
0.380430 0.991520 0.149887
2.010016 0.889759 0.129730
2.047684 0.745451 0.119795
1.293016 0.492038 0.095574
2.034071 0.303870 0.160488
0.043576 0.852057 0.002630
1.056946 0.959428 0.221606
2.049422 0.718082 0.151819
0.617151 0.300922 0.242539
1.168043 0.979554 0.187401
2.022542 0.715620 0.181877
1.712619 0.966466 0.129747
2.010632 0.639137 0.200410
2.032977 0.238094 0.074622
2.000648 0.118576 0.122908
1.959365 0.623441 0.045521
2.021349 0.083507 0.064647
1.428010 0.050879 0.217394
0.696493 0.268872 0.238791
0.424420 0.290961 0.007504
0.710543 0.035184 0.032403
2.007880 0.710244 0.115067
0.267125 0.526247 0.007677
0.028422 0.128733 0.019872
2.001995 0.747523 0.166309
2.009973 0.935019 0.106858
2.032963 0.684623 0.203324
2.034140 0.855777 0.176953
0.022304 0.668050 0.223379
2.008327 0.295468 0.130869
0.043453 0.851907 0.001952
0.944397 0.411589 0.226319
1.947111 0.334449 0.207323
1.020840 0.912276 0.230732
1.678455 0.359001 0.037274
2.020040 0.916381 0.117455
1.488314 0.028821 0.167888
1.701039 0.196910 0.027117
2.033928 0.852710 0.179680
0.256181 0.992453 0.194887
2.009942 0.676050 0.191148
2.019976 0.708230 0.042371
0.230503 0.723986 0.001545
1.605993 0.258222 0.029624
2.031539 0.915199 0.125560
1.834429 0.095520 0.204207
2.018562 0.097872 0.154440
2.032726 0.151930 0.157049
1.106421 0.232820 0.023228
1.558491 0.977494 0.115224
2.012379 0.857800 0.088540
0.041312 0.653440 0.242866
1.467082 0.781147 0.027506
2.006516 0.709664 0.056035
2.006612 0.733044 0.069206
2.032027 0.708061 0.156368
2.047422 0.659033 0.158041
0.580414 0.199919 0.213487
2.008623 0.671327 0.150335
1.925186 0.928386 0.069544
2.000212 0.119345 0.120454
2.027649 0.788814 0.122788
0.711001 0.233427 0.240173
1.001481 0.979626 0.186941
2.037782 0.301018 0.135393
2.000514 0.077327 0.105807
2.037639 0.231862 0.074891
1.069383 0.785000 0.019548
2.043692 0.901627 0.126913
2.041219 0.688146 0.137356
2.000429 0.215780 0.041495
2.033186 0.327317 0.104475
0.192364 0.612383 0.250010
0.033450 0.561581 0.248926
2.044269 0.818918 0.199550
2.001223 0.848056 0.050231
1.996478 0.132005 0.200239
2.012521 0.233298 0.045845
0.282157 0.980305 0.172970
2.030091 0.839346 0.098504
2.033268 0.354557 0.077770
2.041484 0.819601 0.133527
2.016896 0.735843 0.177114
2.005133 0.350592 0.093012
2.030378 0.211665 0.125291
2.051344 0.818365 0.128576
1.858078 0.042246 0.114816
2.015030 0.096685 0.090606
2.042048 0.398850 0.188016
0.440015 0.909986 0.241628
2.022922 0.372593 0.103430
1.927302 0.732789 0.214653
2.016049 0.756633 0.040487
2.020701 0.649097 0.095229
2.010562 0.904400 0.171377
0.046776 0.993043 0.222160
1.285279 0.499367 0.072727
0.087324 0.043015 0.005934
1.755705 0.250862 0.212560
2.032231 0.932595 0.160442
2.006229 0.058657 0.123712
2.029796 0.721484 0.189331
1.383579 0.939086 0.026992
2.022575 0.188149 0.135854
2.017201 0.681083 0.191017
2.023163 0.803616 0.100864
1.876123 0.107139 0.039904
1.616320 0.113532 0.223631
0.009244 0.505145 0.221921
2.015481 0.887887 0.167531
2.012309 0.059204 0.149143
2.024290 0.352007 0.073397
2.044852 0.258797 0.047845
2.004841 0.367351 0.200467
2.018896 0.681016 0.127061
0.690804 0.985620 0.101439
0.869858 0.480739 0.233750
2.018782 0.639498 0.119193
2.033252 0.732225 0.044826
2.006809 0.305431 0.041686
2.020581 0.271387 0.143559
2.029636 0.772421 0.161292
0.905157 0.980224 0.191508
0.732939 0.015429 0.100916
2.030579 0.775512 0.178289
2.041007 0.276005 0.046258
2.000271 0.289912 0.039032
2.030297 0.105648 0.171593
1.967175 0.878558 0.205673
2.007401 0.237211 0.132114
2.043957 0.792899 0.145899
1.486079 0.977009 0.087332
1.389778 0.976302 0.175338
1.022086 0.024840 0.162420
1.697698 0.329420 0.033793
0.037078 0.567010 0.249556
1.238018 0.777783 0.226102
2.031014 0.717976 0.184907
1.580100 0.965745 0.176693
2.015580 0.844944 0.092940
2.035106 0.799893 0.114166
1.573968 0.093389 0.224731
2.022126 0.726487 0.178634
2.027879 0.840318 0.184213
2.017479 0.630500 0.093234
1.586492 0.032980 0.167396
0.609320 0.030368 0.167443
0.038566 0.987095 0.128674
2.017105 0.149523 0.065801
2.002765 0.755692 0.135449
1.825816 0.735085 0.216428
2.024452 0.367358 0.155246
2.029788 0.686933 0.179488
0.058241 0.986290 0.007315
2.043170 0.614473 0.123196
2.022747 0.721939 0.186483
2.054804 0.758295 0.109029
2.041637 0.681193 0.088195
1.788853 0.883089 0.041414
2.000926 0.300494 0.207650
1.773251 0.950270 0.174288
0.258184 0.023387 0.081012
2.026112 0.916278 0.087320
2.030630 0.922772 0.068881
0.038563 0.989062 0.137573
2.043955 0.337547 0.127159
0.850754 0.829916 0.237333
2.014167 0.830135 0.092786
2.021179 0.297030 0.060840
2.006074 0.222603 0.150129
2.012553 0.718654 0.076826
0.164520 0.880344 0.246194
2.014067 0.221852 0.075742
2.022074 0.220839 0.125137
1.336253 0.025302 0.158126
2.024098 0.190148 0.166427
1.828722 0.112830 0.036756
2.031926 0.750208 0.100893
2.032816 0.780082 0.070591
0.764563 0.913998 0.019537
2.036882 0.229357 0.050515
0.911768 0.019275 0.192288
2.032852 0.230892 0.118425
0.130033 0.165735 0.227437
2.019598 0.843053 0.176573
2.016902 0.101517 0.145640
0.652730 0.471861 0.241992
2.045287 0.712677 0.129932
2.035427 0.694947 0.126864
2.048916 0.864810 0.125488
2.001647 0.913888 0.124021
1.760747 0.083223 0.041572
2.035264 0.224157 0.103852
2.025508 0.345656 0.154944
2.035546 0.726023 0.059531
2.008734 0.276993 0.174787
0.156555 0.028355 0.023839
2.014314 0.785718 0.158959
2.022817 0.412694 0.057546
1.579374 0.093501 0.024755
2.027677 0.625261 0.106097
2.002812 0.754347 0.144586
1.709694 0.037319 0.127370
2.012800 0.666294 0.074063
0.855559 0.560791 0.014878
1.066408 0.011099 0.096872
2.001944 0.360681 0.203661
2.009621 0.190728 0.054982
0.041254 0.705696 0.241607
0.826946 0.648231 0.015028
2.037639 0.183166 0.137945
1.775907 0.049722 0.169037
0.504193 0.970557 0.215626
2.030415 0.333994 0.097299
1.808957 0.652379 0.034296
2.021489 0.647323 0.134533
1.223606 0.957354 0.207699
1.044580 0.070732 0.020275
2.012652 0.670691 0.207114
2.017824 0.348008 0.065318
2.038313 0.328636 0.190803
2.017192 0.772864 0.111412
1.228704 0.502423 0.055568
2.022265 0.669826 0.040038
0.616698 0.982319 0.159408
1.575755 0.078939 0.212865
1.229403 0.112991 0.024846
2.022459 0.678012 0.204441
2.005690 0.712882 0.141472
1.072893 0.993599 0.143998
1.800689 0.957723 0.116290
2.019636 0.910267 0.135929
1.237823 0.208669 0.228621
2.006319 0.572720 0.097924
0.033453 0.995781 0.048052
0.347264 0.795761 0.005560
0.329751 0.623837 0.211754
2.007652 0.682386 0.138880
0.366287 0.619669 0.238707
2.005989 0.126293 0.114610
2.008474 0.747795 0.153841
2.001298 0.857592 0.150809
2.025124 0.119820 0.148109
0.687992 0.378383 0.012853
2.039586 0.412706 0.106171
2.024485 0.316321 0.073033
0.983584 0.863601 0.233874
2.013345 0.882962 0.090390
0.036677 0.188899 0.013964
2.015784 0.275097 0.093220
2.010821 0.308547 0.173000
2.033909 0.289244 0.112282
2.042875 0.331086 0.077792
2.039336 0.339690 0.068817
2.034917 0.195737 0.108191
2.013953 0.922460 0.103780
2.027577 0.749487 0.077519
2.000638 0.887062 0.082849
2.043238 0.860607 0.086299
1.869776 0.108154 0.038883
2.012521 0.933139 0.107317
2.021264 0.348509 0.201991
1.775148 0.162716 0.029413
2.036560 0.107947 0.066608
0.096101 0.963662 0.239850
2.018576 0.840891 0.076544
1.447314 0.862434 0.030671
1.868393 0.881047 0.211936
2.003428 0.277166 0.164066
2.040073 0.728954 0.132857
0.995868 0.337536 0.216386
1.188751 0.042260 0.033849
2.013732 0.699957 0.037390
2.038919 0.091718 0.151174
1.968736 0.175842 0.040281
2.010286 0.565693 0.109033
0.933361 0.443573 0.227881
1.308096 0.724580 0.181497
2.010992 0.147421 0.096275
2.023444 0.832276 0.209149
2.038118 0.748146 0.141266
1.951962 0.663037 0.214429
2.007343 0.252245 0.045028
2.038461 0.336184 0.102265
1.900373 0.951946 0.123990
1.309757 0.076953 0.028220
1.809291 0.937221 0.070523
2.036578 0.240857 0.056613
0.912612 0.458084 0.016742
1.949123 0.928355 0.082475
2.026656 0.128085 0.135971
2.011742 0.078111 0.152927
0.013278 0.509918 0.234436
2.005825 0.296214 0.042500
1.216321 0.161657 0.233658
2.020640 0.930446 0.117839
2.012230 0.680055 0.167305
2.024435 0.735181 0.039485
2.025570 0.769084 0.186028
1.887462 0.648160 0.035332
0.596482 0.983858 0.197525
0.039530 0.426560 0.016476
2.002534 0.716035 0.146029
0.030440 0.373092 0.240455
1.341718 0.037917 0.036884
2.028122 0.221336 0.119898
2.000288 0.313538 0.179206
0.013491 0.514475 0.241888
0.863041 0.377618 0.229507
0.856814 0.027653 0.042351
2.023364 0.091646 0.073414
0.007811 0.605221 -0.000325
2.022095 0.088833 0.073625
1.822239 0.619053 0.042517
1.879678 0.670186 0.032611
0.011671 0.279065 0.235859
2.048770 0.749451 0.090866
2.029164 0.787634 0.187305
1.615669 0.654662 0.038622
2.001214 0.102727 0.166548
1.111188 0.980226 0.065402
0.453812 0.132512 0.026546
2.016937 0.339622 0.074967
0.018953 0.890552 0.250145
2.000588 0.799573 0.125313
2.018788 0.585346 0.066433
1.904229 0.605501 0.202000
2.028930 0.271324 0.174884
1.951893 0.106792 0.046189
0.219444 0.981755 0.216932
2.026492 0.348990 0.140628
1.321723 0.946165 0.226671
2.033815 0.595950 0.076129
0.223883 0.010031 0.208290
2.031101 0.930411 0.137363
2.004660 0.865858 0.205160
1.823076 0.905928 0.043664
2.025588 0.792722 0.125310
2.036936 0.079405 0.138733
1.049540 0.972425 0.205054
2.006244 0.790524 0.087015
0.656985 0.025704 0.040370
0.574443 0.020199 0.163782
1.159988 0.266561 0.064618
0.017831 0.747040 0.010729
2.007610 0.172173 0.078813
1.973612 0.234556 0.213401
1.237277 0.490784 0.057196
0.429008 0.532545 0.229442
2.020352 0.301361 0.168629
1.754319 0.888044 0.035467
2.054257 0.245705 0.112442
1.082509 0.478034 0.106441
2.005327 0.901170 0.181384
1.743679 0.116480 0.215307
2.014286 0.350295 0.187820
2.016464 0.939830 0.139259
2.040402 0.096788 0.101012
2.001294 0.107314 0.184666
0.738397 0.031289 0.213435
2.038295 0.102904 0.177095
2.025195 0.408903 0.144709
1.366912 0.976807 0.087080
2.020001 0.799353 0.160508
2.012249 0.715509 0.135389
0.879914 0.990540 0.091864
0.034259 -0.000089 0.183998
2.032238 0.901429 0.052711
0.610835 0.481810 0.007847
2.047931 0.313367 0.104281
2.023425 0.371297 0.189176
2.033696 0.125638 0.135117
1.698572 0.715341 0.028993
1.851282 0.109135 0.210972
0.138720 0.985911 0.020966
2.001362 0.282336 0.081177
1.339310 0.220470 0.220916
2.016776 0.724579 0.168284
0.013600 0.012327 0.084232
2.007751 0.161367 0.097244
0.300829 0.958888 0.016275
2.021828 0.925834 0.076102
1.596805 0.068792 0.208710
2.012108 0.659642 0.207532
2.023007 0.116935 0.149028
2.001221 0.669073 0.192203
2.049318 0.245117 0.121517
1.707565 0.371590 0.210157
2.014259 0.206345 0.053412
1.800173 0.056831 0.173579
0.388823 0.989731 0.169476
2.017891 0.273142 0.089601
1.334042 0.045259 0.032776
2.001818 0.350240 0.144337
2.018226 0.826991 0.177203
1.250190 0.509032 0.189670
2.040798 0.271093 0.087862
2.039047 0.789668 0.048091
0.828810 0.079811 0.019116
1.340788 0.943972 0.220317
2.010548 0.695931 0.089083
2.015575 0.353923 0.199898
2.014640 0.582777 0.057398
2.024173 0.282589 0.075697
1.721686 0.731655 0.225600
2.025903 0.091580 0.162508
2.039833 0.740614 0.110457
2.045441 0.386358 0.068500
0.955711 0.024054 0.194743
2.035768 0.751377 0.149175
2.021132 0.167951 0.105210
2.030107 0.426089 0.134212
0.888538 0.587677 0.016225
2.017631 0.345764 0.201357
2.033975 0.332578 0.095046
2.024310 0.858399 0.143123
1.302446 0.200642 0.025550
2.036353 0.070023 0.119429
2.006043 0.826376 0.044697
2.033033 0.715423 0.127692
2.040083 0.091923 0.085418
2.023243 0.436303 0.110260
2.038732 0.267869 0.046259
2.022422 0.186151 0.198259
2.029531 0.103716 0.205389
2.015052 0.920555 0.112129
0.316535 0.617207 0.003431
0.157516 0.684703 0.247677
2.017961 0.096528 0.184175
1.881635 0.256162 0.031287
2.024277 0.380779 0.080066
0.465869 0.641650 0.012213
2.000152 0.715168 0.043558
1.742260 0.266429 0.221108
2.019767 0.325567 0.131726
2.010451 0.114133 0.153634
1.913745 0.368185 0.211161
0.604698 0.024004 0.039724
2.018938 0.868010 0.039757
2.008738 0.657800 0.178482
0.040902 0.572806 0.013796
0.999106 0.675573 0.222373
1.580334 0.029733 0.163119
1.435085 0.048590 0.214244
2.024197 0.296343 0.159639
1.510247 0.816027 0.022231
2.003979 0.189402 0.181230
0.047646 0.852974 -0.000133
1.657919 0.885319 0.221933
0.288021 0.953708 0.011532
0.149044 0.003824 0.207320
2.007821 0.839730 0.099613
2.028238 0.101937 0.203735
0.028185 0.375080 0.238480
1.767879 0.896692 0.035853
2.033046 0.667468 0.200239
1.288195 0.514447 0.126956
0.056583 0.940027 0.002078
2.017117 0.290534 0.208101
0.018280 0.388114 0.245430
2.042207 0.866436 0.076275
1.318482 0.970865 0.050299
2.005977 0.763890 0.090744
1.234186 0.495664 0.056259
1.232195 0.972901 0.051943
2.019777 0.409893 0.057595
2.007231 0.605300 0.202884
2.003610 0.932416 0.091151
1.931705 0.946806 0.110031
0.756699 0.977872 0.072045
0.678128 0.017946 0.056477
1.136440 0.019754 0.177217
2.019279 0.075744 0.157400
2.007864 0.166258 0.184835
2.007855 0.119610 0.200900
2.033492 0.829768 0.188287
2.009141 0.738372 0.125480
</DataArray>
</Points>
<PointData>
<DataArray NumberOfComponents='1' type='Int32' Name='ParticleType' format='ascii'>
1
1
1
1
1
1
1
1
1
1
1
1
1
1
1
1
1
1
1
1
1
1
1
1
1
1
1
1
1
1
1
1
1
1
1
1
1
1
1
1
1
1
1
1
1
1
1
1
1
1
1
1
1
1
1
1
1
1
1
1
1
1
1
1
1
1
1
1
1
1
1
1
1
1
1
1
1
1
1
1
1
1
1
1
1
1
1
1
1
1
1
1
1
1
1
1
1
1
1
1
1
1
1
1
1
1
1
1
1
1
1
1
1
1
1
1
1
1
1
1
1
1
1
1
1
1
1
1
1
1
1
1
1
1
1
1
1
1
1
1
1
1
1
1
1
1
1
1
1
1
1
1
1
1
1
1
1
1
1
1
1
1
1
1
1
1
1
1
1
1
1
1
1
1
1
1
1
1
1
1
1
1
1
1
1
1
1
1
1
1
1
1
1
1
1
1
1
1
1
1
1
1
1
1
1
1
1
1
1
1
1
1
1
1
1
1
1
1
1
1
1
1
1
1
1
1
1
1
1
1
1
1
1
1
1
1
1
1
1
1
1
1
1
1
1
1
1
1
1
1
1
1
1
1
1
1
1
1
1
1
1
1
1
1
1
1
1
1
1
1
1
1
1
1
1
1
1
1
1
1
1
1
1
1
1
1
1
1
1
1
1
1
1
1
1
1
1
1
1
1
1
1
1
1
1
1
1
1
1
1
1
1
1
1
1
1
1
1
1
1
1
1
1
1
1
1
1
1
1
1
1
1
1
1
1
1
1
1
1
1
1
1
1
1
1
1
1
1
1
1
1
1
1
1
1
1
1
1
1
1
1
1
1
1
1
1
1
1
1
1
1
1
1
1
1
1
1
1
1
1
1
1
1
1
1
1
1
1
1
1
1
1
1
1
1
1
1
1
1
1
1
1
1
1
1
1
1
1
1
1
1
1
1
1
1
1
1
1
1
1
1
1
1
1
1
1
1
1
1
1
1
1
1
1
1
1
1
1
1
1
1
1
1
1
1
1
1
1
1
1
1
1
1
1
1
1
1
1
1
1
1
1
1
1
1
1
1
1
1
1
1
1
1
1
1
1
1
1
1
1
1
1
1
1
1
1
1
1
1
1
1
1
1
1
1
1
1
1
1
1
</DataArray>
<DataArray NumberOfComponents='1' type='Int32' Name='ParticleID' format='ascii'>
0
1
2
3
4
5
6
7
8
9
10
11
12
13
14
15
16
17
18
19
20
21
22
23
24
25
26
27
28
29
30
31
32
33
34
35
36
37
38
39
40
41
42
43
44
45
46
47
48
49
50
51
52
53
54
55
56
57
58
59
60
61
62
63
64
65
66
67
68
69
70
71
72
73
74
75
76
77
78
79
80
81
82
83
84
85
86
87
88
89
90
91
92
93
94
95
96
97
98
99
100
101
102
103
104
105
106
107
108
109
110
111
112
113
114
115
116
117
118
119
120
121
122
123
124
125
126
127
128
129
130
131
132
133
134
135
136
137
138
139
140
141
142
143
144
145
146
147
148
149
150
151
152
153
154
155
156
157
158
159
160
161
162
163
164
165
166
167
168
169
170
171
172
173
174
175
176
177
178
179
180
181
182
183
184
185
186
187
188
189
190
191
192
193
194
195
196
197
198
199
200
201
202
203
204
205
206
207
208
209
210
211
212
213
214
215
216
217
218
219
220
221
222
223
224
225
226
227
228
229
230
231
232
233
234
235
236
237
238
239
240
241
242
243
244
245
246
247
248
249
250
251
252
253
254
255
256
257
258
259
260
261
262
263
264
265
266
267
268
269
270
271
272
273
274
275
276
277
278
279
280
281
282
283
284
285
286
287
288
289
290
291
292
293
294
295
296
297
298
299
300
301
302
303
304
305
306
307
308
309
310
311
312
313
314
315
316
317
318
319
320
321
322
323
324
325
326
327
328
329
330
331
332
333
334
335
336
337
338
339
340
341
342
343
344
345
346
347
348
349
350
351
352
353
354
355
356
357
358
359
360
361
362
363
364
365
366
367
368
369
370
371
372
373
374
375
376
377
378
379
380
381
382
383
384
385
386
387
388
389
390
391
392
393
394
395
396
397
398
399
400
401
402
403
404
405
406
407
408
409
410
411
412
413
414
415
416
417
418
419
420
421
422
423
424
425
426
427
428
429
430
431
432
433
434
435
436
437
438
439
440
441
442
443
444
445
446
447
448
449
450
451
452
453
454
455
456
457
458
459
460
461
462
463
464
465
466
467
468
469
470
471
472
473
474
475
476
477
478
479
480
481
482
483
484
485
486
487
488
489
490
491
492
493
494
495
496
497
498
499
</DataArray>
<DataArray NumberOfComponents='1' type='Int8' Name='IsActive' format='ascii'>
1
0
1
0
0
1
0
0
1
1
1
1
1
1
1
0
0
0
1
0
0
1
0
1
0
0
1
0
1
1
0
1
1
0
1
0
0
0
1
0
1
1
1
1
0
1
1
0
0
0
0
1
0
1
1
1
1
1
0
1
1
0
1
0
0
1
1
0
1
0
0
1
1
0
1
1
0
0
0
0
1
0
1
0
0
1
1
0
0
0
1
0
0
1
0
0
1
0
0
1
0
1
0
0
0
0
0
0
0
1
0
0
1
0
1
0
0
0
1
1
1
1
0
1
0
1
0
0
0
1
1
1
0
0
0
0
0
0
1
1
0
0
0
0
0
1
1
0
0
0
0
1
0
0
1
1
1
1
1
1
0
1
0
0
1
0
0
0
1
1
1
0
0
1
0
0
1
0
0
0
0
1
0
1
1
0
0
1
0
1
0
0
0
0
1
0
0
1
0
1
0
0
1
0
1
0
1
0
0
1
0
0
0
0
1
0
0
0
0
1
0
0
1
0
0
1
0
1
1
0
0
1
1
0
1
1
0
1
0
1
1
0
0
0
0
1
0
1
1
1
0
0
1
1
0
1
0
1
1
1
0
1
0
0
0
0
1
0
0
1
0
1
0
0
0
0
0
0
0
0
0
0
1
0
0
1
0
1
0
1
1
0
0
1
1
0
0
1
0
1
1
0
0
0
1
0
0
1
1
1
0
1
1
0
0
1
0
1
0
0
0
0
1
1
1
0
1
1
0
0
1
1
1
0
0
0
1
1
1
0
0
1
0
1
1
0
0
0
0
1
0
1
1
0
1
0
1
0
0
1
0
0
1
0
1
1
1
1
0
1
1
1
0
1
0
1
0
1
0
0
0
0
1
0
0
1
0
0
1
0
0
1
0
0
0
1
1
1
0
1
0
1
0
1
0
1
0
0
0
0
1
0
1
1
0
1
0
0
1
0
0
1
1
0
0
0
0
1
0
0
0
1
0
0
0
1
0
0
0
1
0
0
0
0
0
0
0
0
0
1
1
0
1
0
1
0
1
0
0
1
1
0
0
1
1
1
1
0
1
0
0
1
1
1
0
0
1
1
0
1
1
0
1
0
1
0
1
1
0
0
1
1
1
1
1
0
0
0
0
0
</DataArray>
<DataArray NumberOfComponents='1' type='Int32' Name='ParticleTetID' format='ascii'>
31068
-50400
106070
-69862
-102510
20689
-69112
-82730
75691
78921
47258
73336
105173
12203
76204
-93293
-91090
-74058
39230
-98831
-12127
58061
-98411
25226
-93293
-102840
35398
-91191
100560
91493
-34180
51764
51632
-39168
44344
-81615
-69112
-42296
34818
-96731
59846
42214
43314
78654
-90119
76129
94294
-93119
-79211
-82225
-90337
80251
-25302
100560
49668
95732
88681
1663
-27681
58392
66476
-90337
97319
-57434
-90680
72893
30057
-27681
57820
-104925
-80727
37015
100401
-96019
80251
4935
-75610
-98411
-34180
-57434
12899
-57434
66531
-42296
-102510
97874
97508
-50400
-98306
-69112
19768
-93293
-104802
-99907
-83399
-79063
99903
-90337
-79597
19247
-90622
22369
-96019
-58762
-86274
-93119
-58762
-98765
-86274
47733
-96731
-44272
33411
-24526
48572
-92602
-87306
-96325
98699
16629
100821
104550
-74058
-98831
-39168
69719
-98765
-39168
-17626
62510
85794
100092
-96325
-104925
-58762
-64130
-96944
-104802
97321
66847
-95998
-92602
-88016
-12127
-70156
96204
70874
-70156
-92373
-88016
-44138
105709
-83215
-102510
56408
90772
72205
46037
99903
79767
-39168
99503
-96019
-17626
25006
-39168
-90337
-74393
32363
33410
97137
-87514
-102840
88398
-93819
-39168
99126
-96354
-39168
-102840
-91248
28478
-91090
5911
31219
-89958
-89958
97137
-96849
63529
-96019
-92373
-85990
-91248
95611
-69112
-83215
103680
-85990
73026
-102840
-83820
98773
-64130
69582
-83215
74435
-90337
-98831
64324
-34180
-104802
-98210
-27681
18044
-69112
-98308
-91248
-61396
92108
-70156
-46315
85587
-74393
-102840
74123
-82524
24328
33421
-96944
-70433
69970
89759
-99021
63330
21054
-83399
93735
-104802
13735
88185
-81615
-58762
-98308
-102510
47430
-90231
60454
30757
99831
-82225
-34180
89511
25193
-27681
7779
-84540
99980
65413
1002
-104802
96879
-42296
-93119
-98210
-42296
77409
-90131
-83399
103088
-96019
85474
-94130
-91191
-25302
-83399
-58762
-99021
-79211
-98411
-48492
-96019
62510
-79211
-96944
78937
-100353
93306
-96019
67756
64663
-61396
-34180
10754
71603
-90680
-98831
30448
-100422
75861
55457
-24687
-82730
-102840
33297
-90622
-83399
322
69811
18817
-64130
11565
79210
-42296
-104925
100092
-88016
56487
-27681
-57434
-92602
-94146
57859
99361
74099
-34180
101063
67007
-83215
-91191
100092
74492
56828
-96731
-101355
-96731
67258
63677
98826
-98411
-94146
2390
-44138
79878
9359
-58762
-71594
-17626
-25092
18675
-61396
97066
93885
-96849
104486
-25092
66943
-27681
-99052
43380
-17626
-98831
89592
-83820
72789
105750
29712
100743
-56272
53214
88116
56878
-91191
32552
-83215
26280
-96325
28718
-98308
-43214
-98306
-44138
75359
-44138
-19405
68171
-70156
-34180
54872
-101044
-48492
780
-94130
-98308
-42296
19194
14200
96062
-94130
79819
-93119
101509
-24687
46816
-89958
40863
-81615
-42296
-42146
-83215
103646
-70433
55180
74324
-94130
67007
-99096
-69862
3188
-94130
-99911
75004
18287
-91248
-96944
-25092
-92373
34576
-104925
-102840
-24526
38408
-102840
-24687
-19405
10792
-96944
-83399
-98210
13070
-98831
-79597
-34180
-96731
-69914
-92373
-99721
-44138
-27681
28621
41273
-44138
12722
-24526
97904
-90680
104549
-50400
-42296
87645
64515
-105531
-42146
88021
85847
40715
46756
-95447
40003
-99721
-100561
47775
46816
100376
-96019
-44138
101063
42120
-42146
77002
99121
-91090
101063
-96019
61753
-98411
88116
70316
-46315
-78226
-79211
10090
12535
44600
100973
-104925
-99721
-44138
-90337
-102840
</DataArray>
<DataArray NumberOfComponents='3' type='Float32' Name='vels' format='ascii'>
10.943572 -5.303663 -0.016256
22.746117 0.571945 -0.290697
0.044355 -0.003162 0.000024
20.081773 -0.217840 -0.277921
23.484112 -0.510887 0.083072
1.386504 -0.017132 0.001052
20.333378 0.277334 -0.621174
12.783111 0.221707 0.073535
12.164087 -6.457859 -0.008845
13.110995 -3.193459 0.003929
12.295961 1.991094 -0.006697
1.418260 0.002465 -0.005089
12.662251 1.495268 0.108420
13.862237 -3.376107 0.014998
11.410921 -1.043882 -0.055118
20.644419 -0.244898 0.011251
14.087736 0.281257 1.252631
14.293141 1.904616 0.878634
20.098981 -0.464163 -0.028018
19.044396 -1.244907 -0.238396
21.835456 0.067503 1.640637
5.550588 -0.050971 -0.004303
20.051412 -0.328575 -0.076616
2.241048 -0.013383 0.024637
18.297037 -0.214221 0.115799
22.591256 -0.226395 0.244628
3.340521 0.323946 -0.108353
21.418610 0.522880 0.667956
0.038525 0.069375 -0.003982
9.960946 0.392847 -0.008548
22.058982 -0.221339 0.905368
12.054399 -0.809630 0.002050
10.806815 0.115135 -0.128169
19.420937 -0.419907 0.689956
10.346325 -0.300948 -0.013716
9.873437 -0.276749 0.223623
19.690416 0.183231 -1.354405
17.262796 -0.581290 -0.236368
12.678687 -0.510389 0.194268
13.718675 -1.653544 -1.157650
6.074546 0.019133 0.118223
6.741065 -1.054749 -0.004545
2.633276 -0.071029 0.000418
11.307855 -0.420787 -0.011681
23.253517 -0.506630 -0.243077
2.799132 0.004810 -0.000107
0.140699 0.028328 -0.004632
21.234953 -0.478901 -0.021576
16.783738 0.725048 0.022270
15.336051 -0.375124 2.450828
15.641460 0.592641 2.478244
-0.030792 -0.028278 0.006940
23.583462 0.705706 0.031841
0.113420 0.063383 -0.011402
1.595808 -2.153396 0.057896
11.636914 0.496496 -0.196593
9.622073 1.016706 -0.109884
4.778271 1.805158 0.005706
16.294222 1.334800 -0.294998
15.338554 0.391713 -0.051802
10.769876 2.841833 0.016458
15.971599 0.661878 2.362355
1.721468 -0.003626 0.017026
16.469972 -0.440812 0.460427
8.803361 -0.053175 -1.230980
0.521053 0.005159 -0.000115
9.072321 4.597296 0.011155
16.358776 2.099030 -0.512324
11.731299 0.748227 -0.051210
12.106804 0.099396 -0.173926
20.829917 -0.376475 0.351593
13.149716 -3.749623 -0.034555
10.666064 -0.305540 0.050990
21.624399 0.251894 -0.102345
0.163350 0.007656 0.000175
17.664010 -3.443810 0.022226
18.270654 -0.489875 0.186874
16.029687 -0.488661 0.199500
22.453575 -0.519201 0.546982
20.858756 -0.561026 1.745228
12.731676 -0.727156 0.015324
22.318605 -0.637696 0.060034
2.040628 -0.033651 0.006952
17.872999 -0.508012 -0.210598
21.544261 -0.576351 -0.237666
16.515981 -2.084997 0.005221
10.611456 0.329650 0.049572
22.850020 0.504740 0.291769
16.743318 -0.167094 -0.066923
20.405083 0.175823 -1.416689
10.587679 3.787664 -0.026481
18.397170 2.312845 0.926571
22.928140 -0.721532 0.020940
1.092060 -0.057378 -0.099089
21.674624 0.629290 -1.020716
0.117633 0.000420 0.000014
0.183475 0.029537 0.019347
18.277976 1.459873 2.053854
15.193783 -0.200755 0.411678
13.209526 -0.305820 0.141533
9.911597 0.030293 -0.531683
4.177998 0.012431 -0.022508
16.604183 0.954922 -1.554912
16.518350 0.455337 -2.328386
22.200797 0.725471 -0.532589
19.328759 -0.349707 0.354440
19.388330 0.531497 -1.176200
23.505890 -0.017541 0.011079
21.587448 0.974728 -0.641169
10.562637 0.294936 0.050728
16.482712 -1.531327 -0.673981
20.251569 0.364379 1.295825
2.272651 0.023498 0.000978
22.036278 0.624905 -0.469285
11.160623 -0.738274 -0.094541
10.498283 -0.075992 -0.761585
21.786999 -0.601339 -0.143358
14.298232 0.925327 0.629781
0.167917 0.001617 -0.002776
2.947088 -0.134687 -0.134572
0.031091 -0.001781 0.000401
0.520146 0.118307 -0.000246
14.099799 2.576252 1.169191
13.357897 -0.648771 -0.039844
17.437643 -0.326126 1.677305
13.738791 -0.157810 0.033570
23.130137 -0.019389 0.136113
16.798710 -0.409249 0.846982
21.975496 -0.398811 0.347033
10.703904 0.571871 0.043603
11.086101 1.786539 -0.013938
-0.012126 0.033181 -0.009585
17.775444 0.811653 0.366037
14.614608 -2.401172 0.802102
16.323602 0.461840 -1.527500
20.101702 0.219511 -1.888051
10.340887 0.260235 0.538024
23.078656 -0.988561 -0.027553
4.391891 0.031139 -0.044484
2.536597 -0.372920 -0.001759
22.910553 -0.665074 -0.024346
15.478941 0.434950 -2.683764
3.843808 0.025786 -0.011749
23.086697 0.462772 0.127130
20.097993 -0.001831 0.998274
6.514361 0.153326 0.059492
4.322976 -0.037931 -0.012728
21.604291 0.016050 0.594368
20.440455 0.307652 -1.507826
3.309534 0.025848 -0.069147
16.746200 -1.534288 1.226030
11.501857 -0.108273 -0.234722
23.785807 0.531745 -0.031865
21.848852 0.420922 0.793156
12.276273 -0.273510 0.145755
12.459783 -0.101472 -0.092325
12.733127 -0.344995 0.034916
11.315304 4.851996 -0.011278
0.054792 -0.014290 0.018992
1.572265 -0.071938 0.004325
17.330247 -0.352344 1.789258
12.121177 -0.553742 -0.028473
19.581049 0.422816 -0.371368
23.074533 -0.332614 -0.039117
11.374689 1.400008 -0.013726
16.564731 -0.331065 1.203524
19.095386 0.410807 1.106184
21.597133 -0.714607 0.164443
13.610288 0.682093 -0.140999
6.244553 -0.074388 0.025500
0.046264 -0.006041 0.001181
18.889380 -0.021748 0.028150
23.744358 -0.623742 0.078356
10.884006 -1.714712 -0.027552
21.550093 0.597724 0.177560
19.931805 -0.620684 -0.104144
0.540260 0.001866 -0.003405
22.186483 -0.580909 0.085191
18.532700 -0.364004 0.898198
22.731125 -0.410106 -0.267865
16.903104 -0.287756 -3.000994
17.577988 -1.709953 0.007285
14.810948 0.363075 0.196271
11.210552 -0.408089 0.037378
5.160619 -0.003543 -0.004106
15.925088 1.660978 -1.064572
13.425174 2.439846 -1.661108
-0.104393 -0.000403 0.000723
22.474392 0.693944 0.051149
5.432811 1.485739 -0.007971
16.990761 0.499263 -0.526326
17.556272 0.387056 -1.088772
22.424382 0.267650 -0.125181
19.438241 -0.645570 0.307630
1.147272 0.009337 0.000985
19.790404 0.145941 -0.245545
23.805036 0.246133 -0.090822
1.684171 0.006699 -0.010153
17.974424 -0.188307 1.097113
10.505739 0.698815 0.009018
22.916248 -0.253452 -0.514480
18.818351 0.349067 -1.391396
6.174266 0.574888 -0.027069
15.899244 0.166904 -2.510908
7.269055 -0.239429 0.029091
23.480659 0.156312 -0.174877
12.629737 0.041086 0.149556
18.643998 0.568643 0.689326
18.384430 -0.878138 0.303210
2.618727 -0.074410 -0.000221
23.583081 -0.560089 0.024302
23.161558 -0.767744 -0.045548
20.291565 1.561776 -0.694303
16.401910 -0.321120 -0.053734
11.147737 0.871036 -0.021036
21.410000 0.626257 0.310330
18.442322 0.652253 -0.220620
17.690202 -0.279277 -2.290119
18.769647 0.377517 0.667154
0.805131 -0.007023 -0.001659
17.750980 -0.020871 0.508239
17.540848 0.458101 -1.060460
11.713976 1.413465 -0.026277
20.417662 -0.645471 0.231195
23.602854 -0.615112 0.038929
11.986520 0.487856 -0.053315
18.576584 -0.501876 -0.358508
4.278757 1.301248 0.006415
25.349376 -1.494683 -0.009939
13.702585 0.396953 0.289287
6.917325 -0.024386 0.013341
-0.065990 -0.033345 0.006342
4.122745 1.788392 -0.002707
21.328316 0.562810 0.238438
11.160644 0.471251 -0.073760
2.270046 -0.038295 -0.064877
22.195289 0.732663 -0.247530
12.956683 -2.598743 0.006828
22.344953 -0.609651 0.782143
15.889812 0.044856 -0.025282
9.091974 -0.446217 -0.058258
15.872573 -0.624415 -0.376809
21.407858 0.824238 0.337188
17.297617 0.488402 2.433505
23.606339 -0.372745 -0.031862
2.700407 0.041090 0.118674
13.166489 -0.210343 -1.750043
4.627638 0.046655 0.020614
11.268128 1.091127 -0.020202
7.316810 0.064886 0.000525
14.328609 -0.354769 1.438157
21.838368 -0.661170 -0.191753
3.583837 0.013355 -0.009649
11.708620 -0.403097 0.047953
15.580226 -0.323972 0.093963
13.318437 1.011252 -0.037518
21.053992 -0.422851 0.024730
-0.010819 0.001141 0.036791
1.936853 0.027182 -0.000103
12.076642 0.100221 0.001829
23.244983 -0.730652 -0.131282
3.965342 0.042690 0.000092
20.722970 -0.207133 -0.102217
22.750940 -0.531753 0.033055
20.545453 -0.083357 -0.102342
20.285490 -0.903266 0.046184
4.208151 -0.451523 0.001387
21.801124 0.497681 -0.757091
19.879728 0.548398 -0.714806
1.664038 0.368738 0.004657
18.274489 0.518023 -0.272507
-0.028545 0.000776 -0.005347
22.049778 0.519534 -0.195881
19.783170 0.573937 0.196976
23.087101 0.531150 0.110178
20.744513 0.554739 -1.416790
18.689961 0.464014 -2.153891
22.952633 -0.348073 -0.012363
15.385875 1.081334 -0.018862
20.312842 -0.228192 -0.737240
18.555870 0.457150 -0.153506
18.423548 1.307541 -2.021391
9.711981 0.483545 0.017873
16.597472 0.870109 0.031602
13.153952 0.251382 1.635128
10.297290 1.509725 -0.014235
15.862789 -1.859636 -1.900831
0.136653 0.000511 -0.000358
20.159521 0.339274 -0.414015
17.322629 -1.490046 0.011981
10.681252 -0.670311 -0.030091
21.204620 0.562607 -0.004813
21.937366 -0.464106 0.805875
2.652390 -5.599718 0.280219
13.435185 -0.037353 0.070190
19.470028 -0.491725 -0.239990