<VTKFile type='UnstructuredGrid' version='1.0' byte_order='LittleEndian' header_type='UInt64'>
<UnstructuredGrid>
<Piece NumberOfCells='500' NumberOfPoints='500'>
<Points>
<DataArray NumberOfComponents='3' type='Float32' Name='Position' format='ascii'>
0.953418 0.742834 0.227047
2.041913 0.322548 0.117272
0.229268 0.979027 0.221521
1.982634 0.817972 0.184198
2.006422 0.772777 0.106364
0.116482 0.192160 0.246849
2.021840 0.236634 0.075397
1.545015 0.876092 0.209746
0.918713 0.724368 0.223936
0.883385 0.824190 0.228121
0.994280 0.151975 0.035051
0.197239 0.007164 0.058485
0.913485 0.607134 0.219308
0.526253 0.248604 0.237559
1.107292 0.845078 0.215358
2.029884 0.896507 0.149988
1.562813 0.181057 0.204342
1.461018 0.954869 0.161655
0.706068 0.811091 0.218943
2.028493 0.103892 0.112536
2.053310 0.240382 0.149626
0.010775 0.100595 0.236410
2.013011 0.752185 0.079681
0.254158 0.991684 0.150870
2.010016 0.889759 0.129730
2.047684 0.745451 0.119795
1.126542 0.495067 0.093068
2.034071 0.303870 0.160488
0.036317 0.849252 0.003763
0.656297 0.939863 0.219984
2.049422 0.718082 0.151819
0.448016 0.309455 0.242486
0.720622 0.964853 0.185043
1.973892 0.716449 0.179985
1.105936 0.977527 0.129374
1.551254 0.762641 0.202331
2.032977 0.238094 0.074622
2.000648 0.118576 0.122908
1.229403 0.786700 0.044691
1.562441 0.058838 0.067798
0.829091 0.073459 0.215495
0.484035 0.287084 0.239478
0.285623 0.292062 0.006687
0.474355 0.038197 0.031284
2.007880 0.710244 0.115067
0.112239 0.525760 0.008485
0.028934 0.127538 0.019812
2.001995 0.747523 0.166309
1.457636 0.957418 0.106047
1.701494 0.727460 0.198763
2.034140 0.855777 0.176953
0.022961 0.667739 0.223960
2.008327 0.295468 0.130869
0.039458 0.850205 0.002649
0.822035 0.465946 0.227647
1.160627 0.184762 0.208390
0.637700 0.865848 0.230691
0.999978 0.286816 0.038480
1.936371 0.912586 0.118203
0.813229 0.039946 0.165930
0.935218 0.171235 0.026726
2.033928 0.852710 0.179680
0.181200 0.993430 0.194275
1.813274 0.690590 0.190833
1.638726 0.769992 0.044179
0.163704 0.724030 0.003622
0.883276 0.308579 0.030313
1.990415 0.910147 0.127023
1.111591 0.061051 0.205912
1.988632 0.097265 0.155193
2.032726 0.151930 0.157049
0.885430 0.423660 0.026586
0.937119 0.974433 0.114700
2.012379 0.857800 0.088540
0.041646 0.652550 0.243645
0.872199 0.642445 0.028869
1.782881 0.729346 0.053925
2.006612 0.733044 0.069206
2.032027 0.708061 0.156368
2.047422 0.659033 0.158041
0.122370 0.209046 0.213282
2.008623 0.671327 0.150335
1.521236 0.946834 0.067901
2.000212 0.119345 0.120454
2.027649 0.788814 0.122788
0.485674 0.251220 0.239223
0.628461 0.967750 0.185679
2.037782 0.301018 0.135393
1.891216 0.075914 0.105979
2.037639 0.231862 0.074891
0.799456 0.621839 0.021799
2.043692 0.901627 0.126913
2.041219 0.688146 0.137356
1.444653 0.128388 0.040224
2.033186 0.327317 0.104475
0.097549 0.612755 0.248242
0.028955 0.560213 0.248998
1.895440 0.818293 0.194598
1.556883 0.894897 0.048361
1.228524 0.079705 0.201971
1.661245 0.187846 0.045990
0.068130 0.980314 0.171002
2.030091 0.839346 0.098504
2.033268 0.354557 0.077770
2.041484 0.819601 0.133527
2.016896 0.735843 0.177114
2.005133 0.350592 0.093012
2.030378 0.211665 0.125291
2.051344 0.818365 0.128576
1.208448 0.026267 0.115495
2.015030 0.096685 0.090606
1.648042 0.332538 0.183922
0.258686 0.908722 0.241608
2.022922 0.372593 0.103430
1.110740 0.846271 0.214377
1.625074 0.814252 0.040796
2.020701 0.649097 0.095229
1.974804 0.901976 0.169876
0.027379 0.992840 0.221901
1.100178 0.498961 0.069902
0.082642 0.043085 0.005691
1.103425 0.162173 0.212581
1.465554 0.950990 0.155950
1.756007 0.054127 0.123167
1.832366 0.731685 0.186706
0.825059 0.914669 0.027879
2.022575 0.188149 0.135854
1.853105 0.690639 0.191162
2.023163 0.803616 0.100864
1.256606 0.066519 0.038005
0.868631 0.128839 0.225199
0.012787 0.503413 0.223000
2.015481 0.887887 0.167531
1.612176 0.050801 0.147857
2.024290 0.352007 0.073397
1.832103 0.246102 0.052016
1.552911 0.244775 0.201289
2.018896 0.681016 0.127061
0.456079 0.984527 0.100418
0.695653 0.490489 0.234036
2.018782 0.639498 0.119193
1.762439 0.753369 0.049155
1.595804 0.221238 0.039773
2.020581 0.271387 0.143559
2.029636 0.772421 0.161292
0.602086 0.970706 0.190088
0.508734 0.017766 0.102023
2.030579 0.775512 0.178289
1.680261 0.227805 0.047591
1.549814 0.192666 0.039643
1.945456 0.109174 0.168606
1.321025 0.927430 0.207486
2.007401 0.237211 0.132114
2.043957 0.792899 0.145899
0.940752 0.969621 0.088315
0.832918 0.968709 0.174026
0.616963 0.037318 0.160733
0.965632 0.290844 0.034227
0.036388 0.566949 0.249396
0.874083 0.616875 0.224887
2.031014 0.717976 0.184907
0.942885 0.967189 0.177126
2.015580 0.844944 0.092940
2.035106 0.799893 0.114166
0.937201 0.098060 0.224837
2.022126 0.726487 0.178634
1.979778 0.839778 0.181360
2.017479 0.630500 0.093234
0.886696 0.036495 0.168456
0.568603 0.031665 0.168062
0.039341 0.987651 0.128753
1.970175 0.149334 0.065817
2.002765 0.755692 0.135449
1.144160 0.845521 0.216740
2.024452 0.367358 0.155246
2.029788 0.686933 0.179488
0.047179 0.984260 0.005910
2.043170 0.614473 0.123196
1.976692 0.722845 0.184046
2.054804 0.758295 0.109029
2.041637 0.681193 0.088195
1.064208 0.920051 0.040971
1.377353 0.168628 0.209232
1.155616 0.964471 0.175150
0.019654 0.016452 0.079084
1.899335 0.914439 0.090197
1.553787 0.941273 0.071446
0.038761 0.989187 0.138312
2.043955 0.337547 0.127159
0.583411 0.790875 0.238060
2.014167 0.830135 0.092786
1.977673 0.296313 0.063603
2.006074 0.222603 0.150129
2.012553 0.718654 0.076826
0.116253 0.879303 0.246648
2.014067 0.221852 0.075742
2.022074 0.220839 0.125137
0.740679 0.040228 0.158062
2.024098 0.190148 0.166427
1.166432 0.071662 0.036226
2.031926 0.750208 0.100893
2.032816 0.780082 0.070591
0.578137 0.904339 0.018671
1.872469 0.222634 0.055347
0.617128 0.030490 0.190656
2.032852 0.230892 0.118425
0.015647 0.160216 0.234861
2.019598 0.843053 0.176573
2.016902 0.101517 0.145640
0.461318 0.476084 0.241165
2.045287 0.712677 0.129932
2.035427 0.694947 0.126864
2.048916 0.864810 0.125488
1.960714 0.914382 0.124288
1.027992 0.059956 0.043226
2.035264 0.224157 0.103852
2.025508 0.345656 0.154944
1.861376 0.734284 0.063269
2.008734 0.276993 0.174787
0.145180 0.027121 0.023459
2.014314 0.785718 0.158959
1.576861 0.297280 0.058871
0.871301 0.112851 0.024316
2.027677 0.625261 0.106097
2.002812 0.754347 0.144586
1.037150 0.028176 0.127911
2.012800 0.666294 0.074063
0.646527 0.538754 0.014643
0.665388 0.022956 0.098336
1.352028 0.207163 0.204432
1.802516 0.178877 0.053089
0.040466 0.707651 0.241071
0.552698 0.601198 0.014361
2.037639 0.183166 0.137945
1.107813 0.035486 0.169373
0.342195 0.969839 0.215204
2.030415 0.333994 0.097299
1.119144 0.801534 0.033268
2.021489 0.647323 0.134533
0.662422 0.933784 0.206637
0.661549 0.104918 0.021291
1.406908 0.816039 0.210063
1.876377 0.341317 0.063910
1.865240 0.320000 0.186242
2.017192 0.772864 0.111412
1.023816 0.501789 0.058060
1.515764 0.794592 0.043098
0.417155 0.980578 0.160412
0.952555 0.081371 0.213903
0.675973 0.195637 0.024703
1.619763 0.755401 0.202116
2.005690 0.712882 0.141472
0.730144 0.979596 0.141895
1.194949 0.971555 0.115702
2.019636 0.910267 0.135929
0.829468 0.369638 0.228128
1.715804 0.605694 0.096853
0.033235 0.995341 0.046171
0.208073 0.792685 0.005722
0.006137 0.623505 0.215511
2.007652 0.682386 0.138880
0.080546 0.619044 0.237931
2.005989 0.126293 0.114610
2.008474 0.747795 0.153841
2.001298 0.857592 0.150809
2.025124 0.119820 0.148109
0.487589 0.391938 0.013346
1.731632 0.381549 0.107159
2.024485 0.316321 0.073033
0.668373 0.794293 0.232769
2.013345 0.882962 0.090390
0.037059 0.189381 0.013472
2.015784 0.275097 0.093220
2.010821 0.308547 0.173000
2.033909 0.289244 0.112282
2.042875 0.331086 0.077792
2.039336 0.339690 0.068817
2.034917 0.195737 0.108191
1.861610 0.923326 0.104239
2.027577 0.749487 0.077519
2.000638 0.887062 0.082849
2.043238 0.860607 0.086299
1.224737 0.067535 0.037225
1.516736 0.954333 0.106050
1.635631 0.274878 0.199371
1.105696 0.105556 0.028043
1.905227 0.109580 0.071076
0.093012 0.965025 0.238986
2.018576 0.840891 0.076544
0.727625 0.768107 0.031071
1.255302 0.926000 0.211134
2.003428 0.277166 0.164066
2.040073 0.728954 0.132857
0.872540 0.464627 0.210547
0.715951 0.060819 0.033562
1.453232 0.824929 0.037305
2.038919 0.091718 0.151174
1.356242 0.103201 0.037398
1.671485 0.610523 0.109176
0.807408 0.477566 0.227046
1.006489 0.624981 0.175782
2.010992 0.147421 0.096275
1.629943 0.870227 0.208801
2.038118 0.748146 0.141266
1.338819 0.814920 0.215048
1.665290 0.202535 0.043314
2.038461 0.336184 0.102265
1.228528 0.970929 0.123807
0.697327 0.130924 0.028413
1.162574 0.956997 0.069177
1.886422 0.236925 0.060635
0.737622 0.485264 0.017538
1.228380 0.955877 0.079891
2.026656 0.128085 0.135971
1.812859 0.077605 0.151202
0.013591 0.509944 0.234662
1.622823 0.226444 0.042183
0.744657 0.285694 0.232852
1.701262 0.938775 0.118040
2.012230 0.680055 0.167305
1.680136 0.779832 0.044060
2.025570 0.769084 0.186028
1.285925 0.800627 0.035024
0.435881 0.981455 0.196513
0.039346 0.425998 0.016906
2.002534 0.716035 0.146029
0.028485 0.374224 0.239265
0.797245 0.053203 0.037795
2.028122 0.221336 0.119898
2.000288 0.313538 0.179206
0.013744 0.514203 0.241867
0.617414 0.429801 0.229355
0.551808 0.035118 0.043343
1.953464 0.099249 0.077476
0.007811 0.605221 -0.000325
1.855631 0.091342 0.077180
1.064645 0.762923 0.041538
1.172657 0.816970 0.032215
0.008740 0.279702 0.235392
2.048770 0.749451 0.090866
2.029164 0.787634 0.187305
0.956587 0.641609 0.040853
1.961178 0.101941 0.167538
0.669655 0.967566 0.068292
0.123597 0.135370 0.025675
2.016937 0.339622 0.074967
0.018953 0.890552 0.250145
2.000588 0.799573 0.125313
1.645539 0.650663 0.067393
1.252407 0.774566 0.202738
2.028930 0.271324 0.174884
1.260429 0.065344 0.042554
0.081684 0.981197 0.215776
2.026492 0.348990 0.140628
0.760784 0.913633 0.226236
1.851093 0.603790 0.081040
0.211344 0.009517 0.207766
1.730188 0.935786 0.137297
1.469979 0.915259 0.205927
1.143845 0.938920 0.043306
2.025588 0.792722 0.125310
2.036936 0.079405 0.138733
0.645254 0.955995 0.202168
2.006244 0.790524 0.087015
0.446035 0.026981 0.041019
0.474903 0.020566 0.163780
1.006206 0.394775 0.072923
0.017934 0.746351 0.011313
2.007610 0.172173 0.078813
1.240943 0.136099 0.214443
1.038162 0.489373 0.057305
0.065720 0.532116 0.228549
2.020352 0.301361 0.168629
1.011874 0.913843 0.035872
2.054257 0.245705 0.112442
1.035934 0.454820 0.107417
1.822145 0.906596 0.181988
1.112288 0.079146 0.217028
1.799972 0.330882 0.188136
1.473820 0.962518 0.141613
2.040402 0.096788 0.101012
1.805869 0.100884 0.185020
0.521518 0.034720 0.212565
1.999340 0.108454 0.172569
1.814910 0.396634 0.145698
0.780429 0.962065 0.087376
2.020001 0.799353 0.160508
2.012249 0.715509 0.135389
0.584224 0.980037 0.093497
0.034259 -0.000089 0.183998
1.526163 0.930245 0.057083
0.447616 0.483761 0.008184
2.047931 0.313367 0.104281
1.819065 0.359407 0.188942
2.033696 0.125638 0.135117
0.994252 0.783491 0.027991
1.194110 0.067562 0.210537
0.083995 0.984014 0.021248
2.001362 0.282336 0.081177
0.889433 0.388981 0.219947
2.016776 0.724579 0.168284
0.014861 0.013578 0.083128
2.007751 0.161367 0.097244
0.179968 0.958133 0.016962
1.661808 0.935462 0.077823
1.075031 0.059056 0.207812
1.439228 0.804733 0.206318
2.023007 0.116935 0.149028
1.804139 0.685745 0.194162
2.049318 0.245117 0.121517
1.008940 0.283745 0.210484
1.809859 0.195410 0.050621
1.085458 0.037403 0.175031
0.281596 0.989603 0.170037
2.017891 0.273142 0.089601
0.804501 0.062557 0.033730
2.001818 0.350240 0.144337
2.018226 0.826991 0.177203
1.054504 0.509818 0.190831
2.040798 0.271093 0.087862
1.840684 0.799670 0.053363
0.562342 0.095211 0.018881
0.779990 0.917268 0.220285
2.010548 0.695931 0.089083
1.527378 0.227557 0.199307
1.505721 0.742856 0.056145
2.024173 0.282589 0.075697
1.007664 0.796752 0.224802
1.830113 0.092317 0.159925
2.039833 0.740614 0.110457
1.737827 0.353448 0.071178
0.651469 0.034023 0.193747
2.035768 0.751377 0.149175
2.021132 0.167951 0.105210
1.600880 0.336073 0.133593
0.692926 0.545410 0.016447
1.595898 0.249992 0.199918
2.033975 0.332578 0.095046
2.024310 0.858399 0.143123
0.830132 0.356159 0.024715
1.911958 0.074851 0.120167
1.664642 0.857741 0.044564
2.033033 0.715423 0.127692
2.040083 0.091923 0.085418
1.320766 0.259790 0.109565
1.787945 0.247349 0.048138
1.863160 0.183433 0.196982
1.552707 0.077058 0.200990
1.974383 0.917991 0.112427
0.227436 0.617278 0.003075
0.080287 0.685890 0.247630
1.790854 0.092141 0.182474
1.139843 0.146159 0.031266
1.878689 0.374651 0.077849
0.246805 0.638641 0.011706
1.467751 0.825700 0.042659
1.038919 0.180316 0.220573
2.019767 0.325567 0.131726
2.010451 0.114133 0.153634
1.232205 0.205942 0.210496
0.423198 0.024280 0.040849
1.508881 0.910911 0.044144
2.008738 0.657800 0.178482
0.040523 0.572677 0.014385
0.886257 0.543516 0.218375
0.889501 0.035329 0.161181
0.857828 0.063873 0.213972
2.024197 0.296343 0.159639
0.863927 0.747451 0.020655
2.003979 0.189402 0.181230
0.043390 0.851047 0.000921
0.993738 0.900899 0.221233
0.157574 0.953294 0.011595
0.123352 0.003738 0.208645
2.007821 0.839730 0.099613
1.394011 0.064166 0.200147
0.027983 0.375185 0.238932
1.093877 0.927830 0.035545
1.840401 0.679327 0.195036
1.138147 0.507578 0.127246
0.041804 0.939562 0.001433
1.641578 0.226313 0.206537
0.019601 0.386865 0.245153
2.042207 0.866436 0.076275
0.740522 0.952614 0.051938
2.005977 0.763890 0.090744
1.032780 0.495993 0.056548
0.728942 0.954902 0.052354
1.567830 0.286198 0.056964
1.531369 0.747360 0.204180
1.373865 0.955993 0.089340
1.251948 0.968852 0.108745
0.503540 0.976648 0.072196
0.492589 0.019922 0.057207
0.693380 0.034216 0.175299
1.789971 0.071562 0.158447
1.964338 0.166895 0.184039
1.510234 0.081329 0.200124
1.929381 0.829044 0.185533
2.009141 0.738372 0.125480
</DataArray>
</Points>
<PointData>
<DataArray NumberOfComponents='1' type='Int32' Name='ParticleType' format='ascii'>
1
1
1
1
1
1
1
1
1
1
1
1
1
1
1
1
1
1
1
1
1
1
1
1
1
1
1
1
1
1
1
1
1
1
1
1
1
1
1
1
1
1
1
1
1
1
1
1
1
1
1
1
1
1
1
1
1
1
1
1
1
1
1
1
1
1
1
1
1
1
1
1
1
1
1
1
1
1
1
1
1
1
1
1
1
1
1
1
1
1
1
1
1
1
1
1
1
1
1
1
1
1
1
1
1
1
1
1
1
1
1
1
1
1
1
1
1
1
1
1
1
1
1
1
1
1
1
1
1
1
1
1
1
1
1
1
1
1
1
1
1
1
1
1
1
1
1
1
1
1
1
1
1
1
1
1
1
1
1
1
1
1
1
1
1
1
1
1
1
1
1
1
1
1
1
1
1
1
1
1
1
1
1
1
1
1
1
1
1
1
1
1
1
1
1
1
1
1
1
1
1
1
1
1
1
1
1
1
1
1
1
1
1
1
1
1
1
1
1
1
1
1
1
1
1
1
1
1
1
1
1
1
1
1
1
1
1
1
1
1
1
1
1
1
1
1
1
1
1
1
1
1
1
1
1
1
1
1
1
1
1
1
1
1
1
1
1
1
1
1
1
1
1
1
1
1
1
1
1
1
1
1
1
1
1
1
1
1
1
1
1
1
1
1
1
1
1
1
1
1
1
1
1
1
1
1
1
1
1
1
1
1
1
1
1
1
1
1
1
1
1
1
1
1
1
1
1
1
1
1
1
1
1
1
1
1
1
1
1
1
1
1
1
1
1
1
1
1
1
1
1
1
1
1
1
1
1
1
1
1
1
1
1
1
1
1
1
1
1
1
1
1
1
1
1
1
1
1
1
1
1
1
1
1
1
1
1
1
1
1
1
1
1
1
1
1
1
1
1
1
1
1
1
1
1
1
1
1
1
1
1
1
1
1
1
1
1
1
1
1
1
1
1
1
1
1
1
1
1
1
1
1
1
1
1
1
1
1
1
1
1
1
1
1
1
1
1
1
1
1
1
1
1
1
1
1
1
1
1
1
1
1
1
1
1
1
1
1
1
1
1
1
1
1
1
1
1
1
1
1
1
1
1
1
1
1
1
1
1
1
1
1
1
1
1
1
1
1
1
1
</DataArray>
<DataArray NumberOfComponents='1' type='Int32' Name='ParticleID' format='ascii'>
0
1
2
3
4
5
6
7
8
9
10
11
12
13
14
15
16
17
18
19
20
21
22
23
24
25
26
27
28
29
30
31
32
33
34
35
36
37
38
39
40
41
42
43
44
45
46
47
48
49
50
51
52
53
54
55
56
57
58
59
60
61
62
63
64
65
66
67
68
69
70
71
72
73
74
75
76
77
78
79
80
81
82
83
84
85
86
87
88
89
90
91
92
93
94
95
96
97
98
99
100
101
102
103
104
105
106
107
108
109
110
111
112
113
114
115
116
117
118
119
120
121
122
123
124
125
126
127
128
129
130
131
132
133
134
135
136
137
138
139
140
141
142
143
144
145
146
147
148
149
150
151
152
153
154
155
156
157
158
159
160
161
162
163
164
165
166
167
168
169
170
171
172
173
174
175
176
177
178
179
180
181
182
183
184
185
186
187
188
189
190
191
192
193
194
195
196
197
198
199
200
201
202
203
204
205
206
207
208
209
210
211
212
213
214
215
216
217
218
219
220
221
222
223
224
225
226
227
228
229
230
231
232
233
234
235
236
237
238
239
240
241
242
243
244
245
246
247
248
249
250
251
252
253
254
255
256
257
258
259
260
261
262
263
264
265
266
267
268
269
270
271
272
273
274
275
276
277
278
279
280
281
282
283
284
285
286
287
288
289
290
291
292
293
294
295
296
297
298
299
300
301
302
303
304
305
306
307
308
309
310
311
312
313
314
315
316
317
318
319
320
321
322
323
324
325
326
327
328
329
330
331
332
333
334
335
336
337
338
339
340
341
342
343
344
345
346
347
348
349
350
351
352
353
354
355
356
357
358
359
360
361
362
363
364
365
366
367
368
369
370
371
372
373
374
375
376
377
378
379
380
381
382
383
384
385
386
387
388
389
390
391
392
393
394
395
396
397
398
399
400
401
402
403
404
405
406
407
408
409
410
411
412
413
414
415
416
417
418
419
420
421
422
423
424
425
426
427
428
429
430
431
432
433
434
435
436
437
438
439
440
441
442
443
444
445
446
447
448
449
450
451
452
453
454
455
456
457
458
459
460
461
462
463
464
465
466
467
468
469
470
471
472
473
474
475
476
477
478
479
480
481
482
483
484
485
486
487
488
489
490
491
492
493
494
495
496
497
498
499
</DataArray>
<DataArray NumberOfComponents='1' type='Int8' Name='IsActive' format='ascii'>
1
0
1
1
0
1
0
1
1
1
1
1
1
1
1
0
1
1
1
0
0
1
0
1
0
0
1
0
1
1
0
1
1
1
1
1
0
0
1
1
1
1
1
1
0
1
1
0
1
1
0
1
0
1
1
1
1
1
1
1
1
0
1
1
1
1
1
1
1
1
0
1
1
0
1
1
1
0
0
0
1
0
1
0
0
1
1
0
1
0
1
0
0
1
0
1
1
1
1
1
1
1
0
0
0
0
0
0
0
1
0
1
1
0
1
1
0
1
1
1
1
1
1
1
1
1
0
1
0
1
1
1
0
1
0
1
1
0
1
1
0
1
1
0
0
1
1
0
1
1
1
1
0
0
1
1
1
1
1
1
1
1
0
0
1
0
1
0
1
1
1
1
0
1
0
0
1
0
1
0
0
1
1
1
1
1
1
1
0
1
0
1
0
0
1
0
0
1
0
1
0
0
1
1
1
0
1
0
0
1
0
0
0
1
1
0
0
1
0
1
0
1
1
0
0
1
0
1
1
1
1
1
1
0
1
1
0
1
0
1
1
1
1
1
0
1
1
1
1
1
1
0
1
1
1
1
1
1
1
1
0
1
0
0
0
0
1
1
0
1
0
1
0
0
0
0
1
0
1
0
0
0
1
1
1
1
1
1
0
1
1
0
0
1
1
1
1
1
1
1
1
0
1
0
1
1
0
1
1
1
1
1
1
0
1
1
1
1
1
0
1
0
1
1
1
0
1
1
0
0
1
1
1
1
0
1
1
1
1
0
0
1
1
1
1
0
0
0
1
1
0
1
1
0
1
1
1
1
1
1
0
1
1
0
1
1
1
1
0
1
1
1
0
1
0
1
1
1
1
1
1
1
1
1
1
1
0
0
1
0
1
1
0
1
0
1
1
1
0
1
0
1
0
1
1
1
1
0
1
0
1
1
1
1
0
1
0
0
1
0
1
1
1
0
1
1
0
1
1
0
1
1
0
0
1
1
1
0
0
1
1
1
0
0
1
1
1
1
1
1
1
1
1
1
1
1
1
0
0
1
1
1
1
1
1
1
1
0
1
0
1
1
1
1
0
1
1
1
1
1
1
1
1
0
1
0
1
1
1
1
1
1
1
1
1
1
1
1
1
0
</DataArray>
<DataArray NumberOfComponents='1' type='Int32' Name='ParticleTetID' format='ascii'>
51110
-50400
93885
55642
-102510
95701
-69112
19
18355
52114
34024
67329
86326
95155
8427
-93293
42276
44776
50507
-98831
-12127
101388
-98411
95343
-93293
-102840
58868
-91191
100560
56848
-34180
92446
47739
39167
69289
62107
-69112
-42296
33535
36960
42483
48661
70029
20117
-90119
30674
94294
-93119
55164
166
-90337
80251
-25302
100560
29932
2131
48211
49724
5529
23270
46442
-90337
39977
21495
7353
60649
4159
27680
87470
104923
-80727
78701
95234
-96019
80251
76626
49356
-98411
-34180
-57434
81754
-57434
39464
-42296
-102510
37180
67185
-50400
56441
-69112
46025
-93293
-104802
67459
-83399
51233
99903
26276
55068
47958
11593
89697
-96019
-58762
-86274
-93119
-58762
-98765
-86274
100494
-96731
46155
99304
-24526
10956
38141
-87306
78653
100592
16714
100821
33012
80136
11577
57691
84358
-98765
24988
-17626
30692
98606
100092
-96325
28026
-58762
6987
21469
-104802
99964
104730
-95998
28578
20520
-12127
-70156
99361
96187
-70156
20378
44312
24214
35635
-83215
-102510
32759
67719
80454
46878
99903
48942
-39168
32949
-96019
-17626
77035
-39168
69861
-74393
22183
105750
97137
62493
-102840
13359
-93819
-39168
99126
-96354
39167
-102840
-91248
69217
91749
10373
101509
12537
43849
97137
-96849
49080
-96019
92372
-85990
-91248
72157
-69112
-83215
70707
-85990
29546
-102840
-83820
102317
44341
46691
-83215
100903
-90337
-98831
63869
-34180
-104802
-98210
5529
86688
-69112
-98308
57399
-61396
80504
-70156
56612
32243
-74393
-102840
98433
-82524
17350
103156
43743
64948
69970
679
-99021
97154
70468
-83399
28943
-104802
13339
64275
91408
104899
61249
-102510
43021
68317
8604
4856
75648
42312
-34180
23619
59278
-27681
94676
43830
99980
99975
100807
-104802
64197
-42296
-93119
-98210
-42296
42764
77671
-83399
64078
-96019
85474
-94130
-91191
-25302
-83399
-58762
-99021
12537
-98411
-48492
-96019
85254
104056
34786
36572
66967
101369
-96019
94442
46823
-61396
-34180
46632
78654
44974
-98831
18297
69477
29932
46434
-24687
25548
-102840
27416
11593
-83399
78324
101041
72701
63439
65973
58462
-42296
89192
100092
26096
15573
9409
-57434
11548
-94146
27414
5163
74099
-34180
101063
35052
-83215
-91191
100092
38227
9612
93014
-101355
41229
9007
66048
98826
-98411
-94146
82105
24214
8596
77583
-58762
-71594
-17626
62229
75383
-61396
30692
69708
-96849
65497
102885
66943
69871
45170
45388
-17626
-98831
32904
-83820
31552
105714
55891
100743
-56272
58546
3500
74716
-91191
94434
-83215
14329
103449
93443
22330
94657
-98306
84954
105260
44137
8311
12535
-70156
-34180
10205
-101044
32528
24893
-94130
26552
-42296
13900
79904
99809
-94130
20379
-93119
101509
-24687
55374
10270
85702
6940
-42296
21495
-83215
51614
49575
65146
39671
-94130
43724
-99096
-69862
17469
-94130
52419
84346
30265
-91248
51295
23613
-92373
509
86416
-102840
29095
36588
-102840
-24687
14193
89534
23551
-83399
-98210
71700
56910
20648
-34180
-96731
23363
8868
80103
16006
27680
97981
56084
78013
39207
22866
84610
29241
6996
-50400
-42296
2532
43664
101930
-42146
88021
91579
22183
9357
-95447
104322
-99721
100560
87874
86549
87735
-96019
44453
101063
34598
24988
53786
95063
6245
101063
-96019
19663
-98411
3500
25779
48294
29419
68171
42462
65257
26852
12026
79286
80726
4603
49325
-102840
</DataArray>
<DataArray NumberOfComponents='3' type='Float32' Name='vels' format='ascii'>
8.322915 5.808748 0.025928
22.746117 0.571945 -0.290697
1.783459 -0.004107 0.001937
13.145781 0.147304 0.095481
23.484112 -0.510887 0.083072
1.085823 -0.005869 0.000238
20.333378 0.277334 -0.621174
25.403159 -3.097633 -0.045898
7.755295 5.458201 0.004210
9.593778 2.914615 0.008200
11.409852 -3.211031 -0.006242
1.443654 -0.006075 0.005400
3.809944 3.204321 0.017667
4.337736 -0.214498 -0.000045
22.451570 4.089120 -0.004705
20.644419 -0.244898 0.011251
26.911936 6.656190 0.007772
22.577406 -0.644565 -0.114119
14.669900 1.554740 0.003739
19.044396 -1.244907 -0.238396
21.835456 0.067503 1.640637
-0.015566 0.047247 -0.004900
20.051412 -0.328575 -0.076616
16.153399 0.127336 -0.041929
18.297037 -0.214221 0.115799
22.591256 -0.226395 0.244628
6.189838 0.191041 -0.009875
21.418610 0.522880 0.667956
0.178471 0.032640 -0.019335
7.294695 0.295738 0.002075
22.058982 -0.221339 0.905368
2.715440 -0.079087 0.000200
14.794938 0.733451 0.028045
18.829741 -0.843043 -0.307390
17.040521 0.356354 0.055346
22.425286 -9.076713 -0.056395
19.690416 0.183231 -1.354405
17.262796 -0.581290 -0.236368
26.041018 -1.489265 0.110070
23.322346 1.846526 0.088376
9.633471 -0.712068 0.068508
3.645820 -0.141271 0.000194
2.402017 -0.027242 0.000572
4.685407 -0.017807 -0.011836
23.253517 -0.506630 -0.243077
3.033678 -0.007366 -0.013688
0.034941 0.020821 -0.002635
21.234953 -0.478901 -0.021576
26.316686 -0.587587 0.028111
17.546169 -6.574972 -0.001747
15.641460 0.592641 2.478244
-0.017885 -0.027613 0.007095
23.583462 0.705706 0.031841
0.140131 0.047292 -0.017829
6.621506 -0.963326 -0.019814
28.798833 -4.688674 0.022818
15.747962 0.927968 0.017321
7.529713 -8.862178 -0.211482
16.095073 -0.501285 -0.032739
12.089206 -0.646312 0.098485
12.557269 -4.108163 -0.011583
15.971599 0.661878 2.362355
1.447126 -0.000380 -0.004801
15.805975 -3.180324 -0.050017
17.826032 -7.625025 0.010870
1.358856 -0.005872 -0.000926
14.836195 -7.552427 -0.005718
17.440057 -0.110917 -0.094617
13.209008 -0.796621 0.051196
17.077696 -0.070087 -0.064993
20.829917 -0.376475 0.351593
3.340467 -1.704337 0.002638
11.953641 0.461809 -0.007167
21.624399 0.251894 -0.102345
-0.045473 0.006552 0.000360
5.503898 3.158504 0.005732
6.433657 -1.249353 -0.001924
16.029687 -0.488661 0.199500
22.453575 -0.519201 0.546982
20.858756 -0.561026 1.745228
10.917246 0.104016 0.102755
22.318605 -0.637696 0.060034
2.160018 0.000459 0.000370
17.872999 -0.508012 -0.210598
21.544261 -0.576351 -0.237666
3.789619 -0.146688 0.000073
6.612528 0.065331 0.036965
22.850020 0.504740 0.291769
17.842668 0.996318 0.006186
20.405083 0.175823 -1.416689
5.639990 1.732254 0.005701
18.397170 2.312845 0.926571
22.928140 -0.721532 0.020940
27.619943 1.249380 0.015328
21.674624 0.629290 -1.020716
0.636342 -0.015294 -0.002798
0.184730 0.041744 0.010569
12.379117 -0.806413 -0.065403
22.582112 -2.890627 -0.002583
25.283357 -0.058212 0.003941
22.832043 6.564673 0.018205
9.339837 -1.452831 -0.711196
16.604183 0.954922 -1.554912
16.518350 0.455337 -2.328386
22.200797 0.725471 -0.532589
19.328759 -0.349707 0.354440
19.388330 0.531497 -1.176200
23.505890 -0.017541 0.011079
21.587448 0.974728 -0.641169
17.167977 -0.006637 0.018718
16.482712 -1.531327 -0.673981
12.357586 7.710012 -0.013225
2.167554 0.008338 0.003701
22.036278 0.624905 -0.469285
22.732539 4.070080 -0.000674
19.388032 -6.268140 0.017314
21.786999 -0.601339 -0.143358
21.162440 -0.371991 0.012779
0.923186 -0.086816 0.014674
5.898737 0.346280 -0.243143
0.216026 0.001840 0.003495
23.544493 -6.320712 0.036054
24.685121 -0.836144 -0.104035
14.708175 0.823127 0.051271
18.280806 -2.985874 -0.038041
8.619333 1.048713 -0.020401
23.130137 -0.019389 0.136113
11.402118 -1.441440 -0.031454
21.975496 -0.398811 0.347033
12.024136 -0.090713 -0.072756
11.235058 -1.798795 0.017563
-0.195678 0.023065 -0.002654
17.775444 0.811653 0.366037
18.644274 1.251499 -0.071285
16.323602 0.461840 -1.527500
16.158364 2.605484 0.003752
25.986934 10.050187 -0.047107
23.078656 -0.988561 -0.027553
3.848758 0.022821 -0.001738
12.033555 0.048073 -0.007405
22.910553 -0.665074 -0.024346
15.807963 -3.751724 0.011189
16.863713 5.791246 0.020899
23.086697 0.462772 0.127130
20.097993 -0.001831 0.998274
5.834794 0.064474 0.001902
4.385519 -0.043733 -0.007551
21.604291 0.016050 0.594368
17.630682 6.051475 0.013525
17.278277 5.550031 0.016199
17.898284 0.819870 -0.080537
21.941004 0.031193 -0.019098
23.785807 0.531745 -0.031865
21.848852 0.420922 0.793156
12.569493 0.483808 -0.117511
17.171442 1.306015 0.038003
1.693326 -0.005532 -0.004432
7.155501 -7.498189 -0.093182
0.035458 -0.009283 0.017521
5.047860 3.027864 0.009956
17.330247 -0.352344 1.789258
11.470681 0.546127 0.098021
19.581049 0.422816 -0.371368
23.074533 -0.332614 -0.039117
11.265959 -1.697206 -0.008665
16.564731 -0.331065 1.203524
14.819666 0.211448 0.040597
21.597133 -0.714607 0.164443
12.391172 -0.512483 -0.007933
0.493249 -0.000200 0.003332
0.050915 -0.006250 -0.000288
16.704087 0.363512 0.305935
23.744358 -0.623742 0.078356
18.763820 1.462076 0.012327
21.550093 0.597724 0.177560
19.931805 -0.620684 -0.104144
0.045771 0.000006 -0.000204
22.186483 -0.580909 0.085191
17.678383 -0.624613 -0.309794
22.731125 -0.410106 -0.267865
16.903104 -0.287756 -3.000994
19.927494 1.917714 -0.085901
26.719977 -0.744324 0.036726
19.045545 0.201094 -0.051383
-0.111071 -0.000588 0.016279
14.820578 -0.473942 0.131125
17.790358 -0.968041 0.047784
-0.019921 -0.000889 -0.005011
22.474392 0.693944 0.051149
4.182973 0.269208 0.003194
16.990761 0.499263 -0.526326
17.046214 0.647536 0.363063
22.424382 0.267650 -0.125181
19.438241 -0.645570 0.307630
0.895970 0.011792 0.000742
19.790404 0.145941 -0.245545
23.805036 0.246133 -0.090822
8.957967 -0.216510 0.023415
17.974424 -0.188307 1.097113
12.750372 -0.200544 -0.041876
22.916248 -0.253452 -0.514480
18.818351 0.349067 -1.391396
0.162624 0.004337 0.000266
16.423148 1.822581 0.059873
6.963139 -0.063025 0.020699
23.480659 0.156312 -0.174877
-0.157178 0.026452 -0.002150
18.643998 0.568643 0.689326
18.384430 -0.878138 0.303210
3.226726 -0.016205 -0.000051
23.583081 -0.560089 0.024302
23.161558 -0.767744 -0.045548
20.291565 1.561776 -0.694303
16.767552 -0.413899 0.037309
16.806154 -1.202357 -0.006791
21.410000 0.626257 0.310330
18.442322 0.652253 -0.220620
20.016832 -2.371574 0.045481
18.769647 0.377517 0.667154
0.260115 -0.000618 -0.004883
17.750980 -0.020871 0.508239
18.905611 12.801402 0.110300
9.193573 -1.340860 -0.049832
20.417662 -0.645471 0.231195
23.602854 -0.615112 0.038929
9.266094 -0.185314 -0.059804
18.576584 -0.501876 -0.358508
4.604532 0.187944 -0.001805
7.527464 -0.103752 -0.003150
32.769466 -0.696172 0.031690
17.901002 2.395461 0.027268
0.072459 -0.033498 0.009176
4.909026 0.208871 -0.002239
21.328316 0.562810 0.238438
18.906041 -0.497844 0.048613
6.568643 -0.008979 -0.035032
22.195289 0.732663 -0.247530
18.256259 4.174273 -0.024990
22.344953 -0.609651 0.782143
10.026366 0.422536 0.009197
3.922270 -0.268523 -0.002612
25.940998 0.206241 0.047133
16.477638 1.957070 0.069595
17.256345 2.390557 -0.033289
23.606339 -0.372745 -0.031862
2.451504 -0.209964 -0.279636
24.843679 -6.744318 0.034177
4.519536 0.011501 -0.021294
14.444198 -1.751530 -0.023024
16.549647 -1.598548 0.004265
21.826322 -9.769850 -0.027642
21.838368 -0.661170 -0.191753
6.309221 0.120284 -0.019294
12.519648 0.038432 -0.062238
15.580226 -0.323972 0.093963
9.134783 -3.443617 0.013935
15.269518 -8.524088 0.015493
-0.026269 0.000594 0.034120
2.035800 0.015547 0.000086
-0.052110 0.037421 -0.012581
23.244983 -0.730652 -0.131282
14.091286 -0.386972 -2.311631
20.722970 -0.207133 -0.102217
22.750940 -0.531753 0.033055
20.545453 -0.083357 -0.102342
20.285490 -0.903266 0.046184
4.521038 -0.163455 -0.000958
18.033424 6.349219 0.000460
19.879728 0.548398 -0.714806
6.097251 0.694139 0.004073
18.274489 0.518023 -0.272507
0.030119 0.002126 -0.007537
22.049778 0.519534 -0.195881
19.783170 0.573937 0.196976
23.087101 0.531150 0.110178
20.744513 0.554739 -1.416790
18.689961 0.464014 -2.153891
22.952633 -0.348073 -0.012363
16.081445 -0.733396 0.003427
20.312842 -0.228192 -0.737240
18.555870 0.457150 -0.153506
18.423548 1.307541 -2.021391
19.087893 0.005661 0.098453
21.969879 -0.946164 0.057364
16.367074 8.747727 -0.011655
12.710222 -1.127352 -0.027081
8.931815 0.398903 0.070184
0.026850 0.000059 0.002524
20.159521 0.339274 -0.414015
10.530404 1.963032 -0.004945
20.719802 -0.001232 0.031214
21.204620 0.562607 -0.004813
21.937366 -0.464106 0.805875
5.930158 -1.185548 -0.006281
6.622262 -0.132605 -0.033155
25.915129 -2.306056 -0.002998
17.251731 -2.118573 0.970715
22.307463 -0.062648 -0.004568
16.972131 -9.194801 0.013784
5.185972 -0.837568 -0.028654
0.512958 3.090628 0.308159