<VTKFile type='UnstructuredGrid' version='1.0' byte_order='LittleEndian' header_type='UInt64'>
<UnstructuredGrid>
<Piece NumberOfCells='500' NumberOfPoints='500'>
<Points>
<DataArray NumberOfComponents='3' type='Float32' Name='Position' format='ascii'>
-52.155344 233.054734 -4.831468
554.277553 161.992952 -17.199115
-388.604808 309.145852 -6.122881
-164.868120 277.109377 -10.281217
673.513167 258.612061 -20.252771
-309.992803 137.205288 -2.080917
659.429300 71.575580 -22.104065
7.780685 277.664323 -7.617776
-58.809683 232.656610 -5.156582
-251.141652 262.306168 -4.940701
366.740264 39.613855 -17.449278
-223.424300 39.702030 -29.781939
-294.057989 220.855607 -6.109411
-121.430148 132.613755 -3.952852
312.632180 241.492937 -6.981990
379.806941 297.218413 -13.282193
495.016245 113.921868 -6.650244
328.294548 346.280719 -14.630756
-347.057646 283.878731 -6.434724
643.298852 42.904074 -20.081354
636.027003 126.168579 -13.218916
-84.202590 42.608997 -4.410507
672.401784 255.559498 -26.199978
89.593711 308.387659 -15.700086
513.170927 306.501584 -17.403301
630.048906 227.893664 -16.539276
-200.817389 213.910131 -23.680181
557.829087 159.650046 -9.116658
-151.811361 336.620048 -37.517663
105.433903 262.601248 -6.990846
565.271568 200.275857 -13.647144
-154.398276 150.618117 -2.593366
232.903325 279.324470 -11.212205
531.446434 204.988354 -9.966764
-219.372286 351.585853 -19.656877
354.028653 234.409586 -8.289122
624.896022 70.832895 -27.390540
700.233465 79.458184 -16.599139
314.174497 182.021963 -31.723470
458.545990 26.185828 -25.045959
52.756732 170.090795 -7.030774
-73.196259 146.940786 -4.030252
-94.095742 142.463667 -37.019533
2.816407 86.718853 -32.405192
566.893911 204.465335 -17.989128
-370.252865 216.422989 -37.751324
-120.415013 48.370767 -35.243581
556.335059 202.899644 -9.832543
364.597462 333.689805 -22.846874
505.896554 199.597338 -8.986109
506.096177 308.523020 -10.761969
-86.025172 253.129643 -6.521005
555.891787 167.969409 -17.311122
-127.924728 343.298482 -37.305283
-496.967798 188.077849 -1.783051
352.297853 65.620319 -6.378783
-82.872017 342.729601 -5.607331
-486.541890 182.881126 -32.359848
498.003232 304.345724 -17.054815
293.742132 120.249508 -11.536457
-126.597084 133.816190 -34.060973
509.705859 311.970594 -10.357255
74.094309 317.610179 -10.190382
477.954235 212.798951 -10.903767
478.649484 224.479221 -28.335343
-160.956329 261.757217 -37.409994
279.653573 198.330222 -32.671642
486.721236 367.176201 -19.184460
335.922109 32.845799 -8.090249
605.535299 39.896356 -10.362249
147.465595 173.359899 -14.608198
-362.249010 183.850081 -34.953148
168.186916 216.754610 -20.179428
530.855754 318.453068 -18.111774
-117.428012 243.575992 -3.058490
-66.161431 226.368112 -32.608676
499.867632 206.004453 -28.057039
567.164844 255.470213 -26.478375
552.729777 198.028174 -11.380626
487.399320 203.994052 -13.537738
-210.914704 126.029560 -6.734928
530.683569 188.280144 -13.849059
348.436465 302.170476 -27.923394
657.910637 47.130310 -17.169985
671.364724 254.373856 -22.971863
-121.355970 132.850883 -3.695240
213.617419 232.501018 -10.419303
540.084850 166.898041 -16.167129
606.910071 39.897687 -20.977852
701.102574 79.868172 -21.942095
-116.998779 236.394791 -35.320039
503.321275 308.613609 -16.949062
497.797226 185.274569 -14.497399
453.570507 40.278438 -27.539689
541.938630 159.497360 -17.228191
-175.660298 234.959834 -2.638061
-215.491428 223.169716 -2.453149
26.264101 266.264227 -10.273846
306.552710 295.345748 -30.826231
367.393482 26.012363 -3.101584
487.009175 49.848802 -29.668158
-271.706951 344.370729 -12.068840
-113.643729 322.231856 -23.402355
-433.051773 176.978735 -26.652363
-393.281849 245.268942 -19.953148
563.824734 259.238722 -10.642332
-207.429554 177.396071 -24.234424
723.581764 138.863095 -17.832278
-391.961227 244.718747 -19.887860
452.427818 22.459169 -13.886008
659.301141 48.211083 -19.984506
-502.376440 192.203759 -10.147197
-94.684601 362.326064 -3.395343
322.811092 103.210395 -23.474057
323.779177 249.980439 -7.309765
378.824682 263.850654 -23.939239
316.243952 182.827816 -26.303000
355.516600 307.971993 -13.027877
-388.571414 311.606424 -5.618137
-100.633663 214.264930 -27.389922
-190.106876 40.339222 -35.959313
161.917837 183.187444 -6.849323
364.167739 333.978292 -15.222294
573.972946 38.710226 -17.730350
519.093001 200.162752 -10.073937
-112.430965 358.364840 -33.919871
-52.585818 123.165684 -17.776019
508.310326 199.437124 -9.321454
500.750919 250.921213 -22.050225
268.594179 174.347651 -32.290771
-245.778713 89.913453 -4.791623
-359.138684 212.579990 -4.802957
516.028401 313.518619 -10.447077
573.505747 34.992770 -12.250570
363.123606 60.166455 -17.412588
532.423699 94.395477 -27.645504
299.297327 185.900927 -9.204656
582.966763 220.236318 -17.456739
122.989437 255.531010 -22.776322
-376.213547 210.427244 -3.395018
490.974943 195.279845 -20.229166
479.042607 252.057624 -26.698017
357.361411 64.062357 -29.769567
579.906906 163.269327 -9.244357
659.365248 253.729549 -11.789755
123.299602 244.516762 -9.873924
73.133594 176.467452 -22.863948
548.710195 257.815451 -10.678118
501.563388 81.510515 -29.206299
372.743103 56.898094 -8.967740
488.162974 25.226935 -11.413704
314.934890 300.622653 -8.173084
632.541253 166.039656 -13.982098
593.842682 260.282620 -12.331276
261.074033 329.355870 -25.359406
-372.388458 310.728553 -13.278729
91.680105 177.924870 -11.977113
-336.133028 181.327449 -32.512488
-181.136366 224.581851 -2.926604
-240.434021 222.224982 -5.512865
539.252147 204.153457 -12.738873
-353.205219 316.231865 -13.152768
528.368364 312.629341 -18.597979
-157.237671 312.005012 -21.859157
-64.890482 62.120523 -6.624813
533.362546 199.400626 -14.214705
376.579655 282.859509 -7.965586
315.559205 181.876131 -25.266190
281.873441 151.071237 -11.458560
22.757932 95.222032 -13.901289
-338.193733 326.275997 -19.139447
266.583562 177.307739 -28.813257
720.470578 250.798644 -16.114935
23.908208 250.792873 -6.750080
503.387341 123.489360 -13.049500
495.757725 193.007616 -12.367015
-521.837292 274.647301 -37.157127
353.458914 76.503901 -19.405854
519.017161 193.854614 -10.251432
734.594516 249.785366 -17.397998
496.381426 191.742510 -27.224604
289.157220 295.651247 -32.106494
361.170361 62.006757 -4.670139
284.974527 328.392726 -13.159127
-12.727923 44.425987 -26.897780
347.935297 360.288185 -25.836072
367.193479 293.456307 -26.924952
-78.510397 384.691263 -17.698827
-331.902556 176.625916 -19.897935
-343.257968 280.036635 -3.218102
-151.995880 319.056469 -24.633930
492.740500 107.083269 -24.163010
642.924459 125.269092 -12.367642
527.048332 197.363459 -26.547091
-142.889453 349.124461 -2.821515
642.071354 66.327265 -21.454508
744.835774 142.217427 -18.159577
289.880721 51.995413 -16.174679
587.196273 125.959836 -11.634869
269.808990 174.031979 -32.737893
710.042938 248.632620 -19.810510
523.611450 254.213796 -26.371256
-95.257678 358.285573 -34.835397
531.748532 66.558503 -26.413223
60.953542 165.296798 -10.086010
719.062321 136.862696 -17.771210
-166.022280 69.145816 -4.868908
220.026659 215.642857 -12.508078
642.523473 42.634251 -12.583773
-384.927125 183.877727 -2.111923
567.386750 204.852188 -16.347172
627.684476 226.433288 -15.333943
529.620672 308.249601 -18.710724
475.713594 374.823630 -16.083622
254.136837 167.950007 -31.776234
663.141810 128.848333 -20.788635
511.407926 135.680788 -12.196327
503.575510 202.362984 -26.449038
498.171748 132.229007 -11.040247
-173.614617 31.113942 -34.403236
632.461349 255.389725 -12.319050
-259.138877 181.013332 -29.663758
-235.717999 82.648735 -34.289934
514.872246 148.445796 -20.908527
681.613844 252.204832 -11.959922
96.376021 178.170662 -18.394233
456.249925 226.541341 -22.142618
-122.144702 223.904134 -35.970561
89.401404 179.289106 -23.312261
193.117246 186.054281 -8.705862
448.446118 38.103613 -24.469417
-111.454685 260.647934 -3.340457
-97.429679 232.760338 -36.089577
619.081265 120.745740 -15.005598
5.954941 95.121999 -13.430922
-62.608826 378.968535 -6.991484
516.355491 152.752349 -20.494663
-293.775754 223.811651 -33.167194
57.444256 226.265620 -18.777505
213.852035 225.030060 -7.112880
-127.372994 50.278501 -34.681491
332.430331 228.089728 -7.263121
361.536316 59.291916 -20.040180
504.662867 124.897445 -8.965626
714.424123 249.235246 -19.013017
-234.727286 213.967627 -29.344295
379.953752 246.869993 -19.378732
125.534983 242.611144 -12.177946
20.464783 147.159987 -6.846076
-164.861874 118.354676 -34.639680
506.585313 205.187717 -8.719525
612.106764 221.261364 -16.575365
277.468489 344.131598 -17.225357
247.660050 304.955208 -21.295631
481.270429 369.635409 -16.017252
-172.073364 170.398287 -4.937039
85.836551 215.885816 -23.881630
-327.129818 331.806670 -31.359185
-308.529575 292.229479 -36.996243
246.473727 208.092349 -6.683945
318.347665 188.274080 -17.565101
-106.444909 242.605661 -3.438356
687.530578 55.038083 -18.520956
567.634445 193.219859 -14.624172
535.386632 322.044528 -12.091911
611.955779 40.353549 -8.557181
-160.160466 166.783988 -36.869488
-498.715504 188.574928 -24.457481
523.890283 134.549014 -26.513428
-282.541034 261.476798 -4.054765
489.707025 295.003951 -21.625775
-405.745174 126.143704 -35.890710
686.621675 159.857812 -19.371209
-198.562561 173.746082 -12.714651
589.789727 165.644696 -16.347398
-317.462645 176.101784 -26.507847
458.887208 76.633290 -25.466378
647.407750 127.954857 -19.760741
519.641809 317.356674 -18.031871
564.127343 213.362363 -18.985256
485.684619 292.032701 -21.492365
520.835675 319.514193 -19.066795
280.426462 169.664966 -32.086211
364.179256 337.197674 -23.138964
442.047714 70.807532 -4.771637
-220.290694 123.956995 -34.339659
456.531526 27.552086 -32.183267
-128.521559 371.530464 -4.359196
490.483789 253.027376 -23.523465
-207.106257 266.415968 -32.047630
297.854342 293.388142 -7.818849
568.426865 160.604911 -9.312695
727.626226 248.705440 -13.360298
-502.739387 192.259559 -3.894096
-211.408124 51.374902 -33.914467
398.575545 243.391092 -8.032047
636.006406 41.031385 -11.987765
-244.518713 130.084134 -31.972207
356.201646 73.982951 -17.987367
-409.843016 210.778811 -4.483223
-275.552059 216.321665 -12.652443
334.824846 41.590132 -23.648211
167.094186 202.183204 -8.337869
411.591621 245.039275 -3.410562
301.960922 218.457797 -6.724028
535.918047 64.260441 -22.802964
541.807811 161.513565 -19.646710
-120.186314 371.644429 -20.028409
-209.313619 79.839606 -33.524204
330.593683 317.455889 -28.003889
553.667983 69.739025 -27.768982
-414.997878 211.530693 -36.790933
-366.327535 307.727268 -26.664389
661.738731 68.149977 -17.976341
622.341668 39.906779 -12.249618
-335.533712 213.593962 -4.015109
364.971793 56.932817 -18.947992
-103.243383 148.086997 -3.831993
537.132705 314.669205 -21.042095
531.618994 195.125738 -12.204557
412.710718 258.068977 -7.476915
559.944111 259.399473 -10.459222
356.225718 242.222693 -32.174269
85.902071 304.198851 -9.970427
-145.446903 173.071408 -35.496081
629.565377 225.194957 -15.741857
-106.749103 162.712850 -3.510193
56.130869 167.594278 -32.511421
698.269110 132.583048 -18.370220
484.104687 106.007354 -10.990561
-238.984830 218.744421 -2.942945
-275.353716 176.271131 -5.383473
24.879916 113.169091 -31.109943
562.476336 39.686025 -22.354598
-136.867805 234.747105 -37.716023
513.782304 34.544673 -25.679424
-29.781688 220.566482 -31.337969
381.389924 260.841684 -19.457237
-82.560663 140.558955 -5.958725
705.121424 252.088816 -21.625387
540.124710 256.333484 -10.037454
-279.402706 218.700859 -32.493640
488.702908 29.810155 -10.393085
94.638054 294.846450 -27.756870
-171.185403 63.747045 -34.136800
459.205475 76.159642 -21.791956
-176.086009 345.960780 -2.563630
-186.438135 267.899520 -19.511932
311.167060 166.506472 -29.455833
310.166313 156.049413 -8.232796
552.855692 160.093928 -9.424754
290.207982 145.763127 -31.625990
-423.402119 300.554760 -6.701900
21.688953 217.040465 -17.477658
-41.543315 338.272316 -6.052314
-378.802699 217.065776 -26.631441
-7.894655 51.771326 -8.745802
385.247892 381.119355 -13.379699
307.369795 292.438812 -8.089962
246.902945 287.800140 -31.834431
644.372563 252.547628 -11.143803
642.556976 47.743650 -13.071579
170.735705 215.455535 -7.465770
667.370977 257.460245 -24.595957
-280.979972 60.122430 -31.876001
33.500476 116.290980 -14.297070
-248.868657 210.837595 -27.977013
-103.765883 273.062807 -35.873138
-296.897451 134.718673 -26.364225
478.584573 57.472043 -6.155381
-223.322283 213.575334 -29.244719
-281.042524 218.855097 -5.592492
558.169604 158.869240 -11.907077
287.167180 293.970849 -32.791733
691.885295 133.842317 -20.525612
-203.255269 212.173333 -22.413482
337.019562 320.994888 -11.300606
10.262852 140.318845 -6.855158
484.739433 99.847269 -9.329269
376.322924 372.731670 -15.685323
655.246696 44.865849 -20.750641
483.905100 28.703697 -8.976741
11.608054 98.164353 -7.846716
500.182323 31.332313 -9.043460
-501.931786 193.472515 -17.443101
272.155535 343.522332 -25.236557
561.395917 254.178630 -12.204064
566.954163 192.049648 -19.551771
247.612326 322.367668 -24.299657
-257.474616 48.797537 -11.430173
303.259926 308.364831 -29.856637
-450.779850 212.421454 -37.751220
545.062444 165.084493 -20.566273
-71.247651 180.843720 -10.530751
602.014868 61.839078 -15.617434
-84.144024 241.974348 -34.301920
283.079327 162.038394 -7.349609
-151.685921 377.734894 -34.949537
439.035375 68.681408 -15.553757
-343.120784 179.311120 -5.243192
551.572949 200.095644 -11.033032
-398.784349 91.381626 -26.443648
-170.440488 79.848423 -23.815226
-137.193392 376.393430 -36.015238
385.569084 281.078136 -15.379804
303.764116 79.162505 -8.136085
315.362391 185.858565 -6.942055
630.159070 63.737638 -10.196772
482.090025 209.039416 -10.851633
659.799041 127.349681 -18.938579
-32.342008 205.500055 -7.827246
454.581757 39.941228 -26.476167
34.508279 137.459137 -13.118626
-390.351844 311.764035 -12.698783
595.976348 165.594763 -21.353011
-11.198051 80.353187 -33.089998
522.155748 150.956654 -13.723060
-171.903014 317.100393 -11.648312
-237.449069 214.152788 -11.266713
591.267648 165.773652 -21.655798
275.109171 244.754660 -30.536375
-109.717152 45.023768 -35.836967
217.276771 222.005964 -6.497043
541.846880 189.672647 -20.256209
273.404041 200.737437 -9.575063
312.177808 137.019009 -30.480465
588.189369 127.083883 -28.522162
-39.863619 242.083586 -5.939753
566.129183 36.711445 -11.978565
393.582597 253.199029 -4.643691
48.530149 219.988445 -27.855966
27.088579 107.898766 -10.560182
610.722116 221.897775 -14.972172
-153.479265 115.754340 -23.550359
-502.003917 193.956135 -18.019041
-150.092382 224.610813 -36.134970
505.173883 125.356085 -9.826295
546.092445 153.132758 -22.013706
547.989447 317.399173 -10.502191
-157.284416 166.485825 -35.450994
647.358587 40.744164 -19.594439
-212.432123 311.617329 -31.672413
682.479333 253.175312 -11.783028
657.011588 47.241177 -21.305810
-267.992056 183.473120 -22.182675
523.792553 87.881101 -28.832626
518.974051 77.123932 -7.675091
349.250335 28.492021 -6.923625
526.421177 319.401044 -18.120309
-93.514524 242.360290 -37.037858
-106.293254 257.977164 -3.075536
487.135326 28.350676 -10.531034
476.953703 48.299288 -28.007208
-61.864042 196.107649 -26.832406
-127.093409 243.878348 -36.841723
474.670942 224.345975 -28.232115
-95.331592 157.438085 -6.297123
524.670709 158.412134 -15.884276
619.664730 62.396389 -10.111640
68.822178 214.333164 -7.537362
-294.230141 63.153116 -31.929980
299.213954 295.933369 -31.424096
466.576368 216.397892 -11.327101
-96.798526 225.656384 -35.444429
-313.049181 217.656476 -5.836744
293.864652 51.154801 -13.903864
63.316287 178.005264 -6.951581
560.100857 161.306214 -9.820360
-101.114228 254.048723 -35.011277
554.509813 104.750744 -10.607633
-149.203603 337.213774 -37.669451
222.093004 218.070028 -6.688085
-154.287261 368.221637 -35.887637
-18.786770 33.141398 -8.625787
400.884835 273.474580 -5.355285
353.391647 26.859680 -6.004617
-93.861538 161.066332 -3.727735
278.991517 289.709105 -32.582612
508.410237 202.183893 -9.571985
-309.967041 213.115610 -19.324919
-162.318793 361.596540 -37.295168
505.598532 125.953005 -8.806274
-149.403516 165.082833 -3.194180
497.091290 284.213966 -22.866902
149.134291 217.054470 -30.182752
667.508813 252.546113 -26.573899
-237.734862 213.564732 -29.488090
181.745041 216.312172 -29.899770
-219.643424 180.365479 -29.311158
331.144204 95.790758 -8.940789
313.934497 355.404536 -25.655347
319.263842 343.096041 -21.929462
97.823270 291.627352 -27.457069
-0.364071 65.852717 -29.815611
-39.396062 32.437767 -13.042440
560.413237 40.978149 -12.335127
-188.077634 118.978461 -9.631379
428.625593 21.017050 -1.446207
-171.328563 314.431080 -10.244852
581.672310 216.330170 -17.330733
</DataArray>
</Points>
<PointData>
<DataArray NumberOfComponents='1' type='Int32' Name='ParticleType' format='ascii'>
1
1
1
1
1
1
1
1
1
1
1
1
1
1
1
1
1
1
1
1
1
1
1
1
1
1
1
1
1
1
1
1
1
1
1
1
1
1
1
1
1
1
1
1
1
1
1
1
1
1
1
1
1
1
1
1
1
1
1
1
1
1
1
1
1
1
1
1
1
1
1
1
1
1
1
1
1
1
1
1
1
1
1
1
1
1
1
1
1
1
1
1
1
1
1
1
1
1
1
1
1
1
1
1
1
1
1
1
1
1
1
1
1
1
1
1
1
1
1
1
1
1
1
1
1
1
1
1
1
1
1
1
1
1
1
1
1
1
1
1
1
1
1
1
1
1
1
1
1
1
1
1
1
1
1
1
1
1
1
1
1
1
1
1
1
1
1
1
1
1
1
1
1
1
1
1
1
1
1
1
1
1
1
1
1
1
1
1
1
1
1
1
1
1
1
1
1
1
1
1
1
1
1
1
1
1
1
1
1
1
1
1
1
1
1
1
1
1
1
1
1
1
1
1
1
1
1
1
1
1
1
1
1
1
1
1
1
1
1
1
1
1
1
1
1
1
1
1
1
1
1
1
1
1
1
1
1
1
1
1
1
1
1
1
1
1
1
1
1
1
1
1
1
1
1
1
1
1
1
1
1
1
1
1
1
1
1
1
1
1
1
1
1
1
1
1
1
1
1
1
1
1
1
1
1
1
1
1
1
1
1
1
1
1
1
1
1
1
1
1
1
1
1
1
1
1
1
1
1
1
1
1
1
1
1
1
1
1
1
1
1
1
1
1
1
1
1
1
1
1
1
1
1
1
1
1
1
1
1
1
1
1
1
1
1
1
1
1
1
1
1
1
1
1
1
1
1
1
1
1
1
1
1
1
1
1
1
1
1
1
1
1
1
1
1
1
1
1
1
1
1
1
1
1
1
1
1
1
1
1
1
1
1
1
1
1
1
1
1
1
1
1
1
1
1
1
1
1
1
1
1
1
1
1
1
1
1
1
1
1
1
1
1
1
1
1
1
1
1
1
1
1
1
1
1
1
1
1
1
1
1
1
1
1
1
1
1
1
1
1
1
1
1
1
1
1
1
1
1
1
1
1
1
1
1
1
1
1
1
1
1
1
1
1
1
1
1
1
1
1
</DataArray>
<DataArray NumberOfComponents='1' type='Int32' Name='ParticleID' format='ascii'>
0
1
2
3
4
5
6
7
8
9
10
11
12
13
14
15
16
17
18
19
20
21
22
23
24
25
26
27
28
29
30
31
32
33
34
35
36
37
38
39
40
41
42
43
44
45
46
47
48
49
50
51
52
53
54
55
56
57
58
59
60
61
62
63
64
65
66
67
68
69
70
71
72
73
74
75
76
77
78
79
80
81
82
83
84
85
86
87
88
89
90
91
92
93
94
95
96
97
98
99
100
101
102
103
104
105
106
107
108
109
110
111
112
113
114
115
116
117
118
119
120
121
122
123
124
125
126
127
128
129
130
131
132
133
134
135
136
137
138
139
140
141
142
143
144
145
146
147
148
149
150
151
152
153
154
155
156
157
158
159
160
161
162
163
164
165
166
167
168
169
170
171
172
173
174
175
176
177
178
179
180
181
182
183
184
185
186
187
188
189
190
191
192
193
194
195
196
197
198
199
200
201
202
203
204
205
206
207
208
209
210
211
212
213
214
215
216
217
218
219
220
221
222
223
224
225
226
227
228
229
230
231
232
233
234
235
236
237
238
239
240
241
242
243
244
245
246
247
248
249
250
251
252
253
254
255
256
257
258
259
260
261
262
263
264
265
266
267
268
269
270
271
272
273
274
275
276
277
278
279
280
281
282
283
284
285
286
287
288
289
290
291
292
293
294
295
296
297
298
299
300
301
302
303
304
305
306
307
308
309
310
311
312
313
314
315
316
317
318
319
320
321
322
323
324
325
326
327
328
329
330
331
332
333
334
335
336
337
338
339
340
341
342
343
344
345
346
347
348
349
350
351
352
353
354
355
356
357
358
359
360
361
362
363
364
365
366
367
368
369
370
371
372
373
374
375
376
377
378
379
380
381
382
383
384
385
386
387
388
389
390
391
392
393
394
395
396
397
398
399
400
401
402
403
404
405
406
407
408
409
410
411
412
413
414
415
416
417
418
419
420
421
422
423
424
425
426
427
428
429
430
431
432
433
434
435
436
437
438
439
440
441
442
443
444
445
446
447
448
449
450
451
452
453
454
455
456
457
458
459
460
461
462
463
464
465
466
467
468
469
470
471
472
473
474
475
476
477
478
479
480
481
482
483
484
485
486
487
488
489
490
491
492
493
494
495
496
497
498
499
</DataArray>
<DataArray NumberOfComponents='1' type='Int8' Name='IsActive' format='ascii'>
1
1
1
1
1
1
1
1
1
1
1
1
1
1
1
1
1
1
1
1
1
1
1
1
1
1
1
1
1
1
1
1
1
1
1
1
1
1
1
1
1
1
1
1
1
1
1
1
1
1
1
1
1
1
1
1
1
1
1
1
1
1
1
1
1
1
1
1
1
1
1
1
1
1
1
1
1
1
1
1
1
1
1
1
1
1
1
1
1
1
1
1
1
1
1
1
1
1
1
1
1
1
1
1
1
1
1
1
1
1
1
1
1
1
1
1
1
1
1
1
1
1
1
1
1
1
1
1
1
1
1
1
1
1
1
1
1
1
1
1
1
1
1
1
1
1
1
1
1
1
1
1
1
1
1
1
1
1
1
1
1
1
1
1
1
1
1
1
1
1
1
1
1
1
1
1
1
1
1
1
1
1
1
1
1
1
1
1
1
1
1
1
1
1
1
1
1
1
1
1
1
1
1
1
1
1
1
1
1
1
1
1
1
1
1
1
1
1
1
1
1
1
1
1
1
1
1
1
1
1
1
1
1
1
1
1
1
1
1
1
1
1
1
1
1
1
1
1
1
1
1
1
1
1
1
1
1
1
1
1
1
1
1
1
1
1
1
1
1
1
1
1
1
1
1
1
1
1
1
1
1
1
1
1
1
1
1
1
1
1
1
1
1
1
1
1
1
1
1
1
1
1
1
0
1
1
1
1
1
1
1
1
1
1
1
1
1
1
1
1
1
1
1
1
1
1
1
1
1
1
1
1
1
1
1
1
1
1
1
1
1
1
1
1
1
1
1
1
1
1
1
1
1
1
1
1
1
1
1
1
1
1
1
1
1
1
1
1
1
1
1
1
1
1
1
1
1
1
1
1
1
1
1
1
1
1
1
1
1
1
1
1
1
1
1
1
1
1
1
1
1
1
1
1
1
1
1
1
1
1
1
1
1
1
1
1
1
1
1
1
1
1
1
1
1
1
1
1
1
1
1
1
1
1
1
1
1
1
1
1
1
1
1
1
1
1
1
1
1
1
1
1
1
1
1
1
1
1
1
1
1
1
1
1
1
1
1
1
1
1
1
1
1
1
0
1
1
1
1
1
1
1
1
1
1
1
1
1
1
1
1
1
1
1
1
1
1
1
1
1
</DataArray>
<DataArray NumberOfComponents='1' type='Int32' Name='ParticleTetID' format='ascii'>
2827
58182
10118
6413
63783
6842
64611
31073
3026
8407
84773
7680
7436
14546
32637
51070
52813
29526
6031
58905
60358
14581
61714
42450
70730
60882
7499
58179
5993
25599
72438
20918
39081
62860
9259
51287
60512
57176
43700
51328
31557
10964
10547
27518
69792
2374
23109
67937
39231
64823
64804
5329
59102
12633
19208
32419
4754
10850
51847
94284
13317
64803
28553
55570
52898
5380
36769
51919
31827
61006
26034
34
90276
56526
10602
9949
52232
66862
77549
52278
6789
66462
32142
72978
73882
14546
91440
71828
61013
57179
19061
64807
51666
52572
58219
290
9450
28229
32324
85109
52646
9868
23913
3808
6109
66082
9406
64194
6109
54224
69577
2273
17858
28883
30783
82133
43697
37228
10118
22314
2715
39189
39228
59282
64893
4893
134
64821
64720
43466
8606
12871
66371
71392
84525
80148
50405
75589
89977
5276
52281
52734
47642
73767
73877
91089
98138
66154
64795
141601
53681
36833
57120
66424
30682
6142
98605
11875
9504
9542
61600
9886
56527
7175
5185
62862
47901
43697
95718
34514
9835
41882
66914
34473
70492
52222
10690
43082
66460
74384
52230
29804
85850
29686
3558
42059
33546
3500
11869
6032
7175
52119
60359
62866
15067
60831
62034
28988
59387
43465
59317
79300
17871
56728
45670
64196
379
34168
58900
16022
69792
68982
56527
54458
44798
59085
74290
64828
56308
9663
68008
7286
13913
69111
56704
97669
55827
935
98206
25043
51940
11648
9123
72672
32352
1623
74405
9535
30824
91084
23110
42843
84767
70491
66914
7484
81914
91230
48945
6873
64821
68048
29598
33941
54456
9380
31511
8023
6693
25275
45080
10603
57319
58038
78322
61005
9088
19217
74062
6355
52013
2213
56473
7259
68516
7247
55144
58003
74365
77227
52011
74365
25951
39233
55387
8783
51331
2180
52659
6404
32313
72039
66912
2270
5793
120555
58900
6782
48445
16256
7420
29944
26733
-126563
25959
68247
58219
3285
8601
27390
76764
16271
7984
64610
57820
11108
84716
5671
56493
62861
134434
66155
26168
42449
10223
68982
883
26761
66716
52924
7470
7328
48397
78761
934
67690
14071
82001
10531
59319
67559
9535
52473
37382
2445
55143
15336
12482
49836
49811
58179
38047
4125
32875
12277
5284
22089
24936
32313
27572
63887
58900
91159
61714
9607
25800
7556
17655
6851
52777
7412
9523
58181
29803
66717
7499
33862
30495
52923
24883
72981
51951
32349
67595
2276
29566
72076
58039
30395
7781
32340
11429
58221
22505
73932
12509
38327
13625
87595
13447
77549
4186
6527
2357
82643
47829
49755
63851
55409
59083
39
52570
40073
10121
64953
20047
74400
5459
7475
68519
30091
23199
44479
58095
36761
25124
59394
2828
71393
127228
30270
44051
68046
6833
2276
10421
70493
58222
75981
11500
58903
7196
59297
72981
9370
56912
67215
26913
56528
10565
10458
52473
52538
16734
2481
54246
11629
75896
60502
34673
7610
32323
54707
9123
7454
28988
44409
59099
10473
79815
5993
36455
13445
7061
-127033
46999
11630
29803
64821
7460
2158
70491
9218
53290
90579
73882
7484
91176
7374
25095
29476
29531
37380
10526
3100
71861
6881
87784
5459
70532
</DataArray>
<DataArray NumberOfComponents='3' type='Float32' Name='vels' format='ascii'>
0.443075 -0.023125 0.000131
1.507060 0.227756 0.000529
0.115993 0.034520 -0.001375
0.033126 0.005365 -0.001076
2.229656 -0.280772 0.002160
0.011177 -0.001883 -0.000967
2.561217 0.467723 0.003357
1.702999 -0.447060 -0.000349
0.960849 -0.088691 -0.000234
0.543975 0.080264 -0.000654
0.013029 0.350255 0.242301
1.219985 -0.340502 0.002822
0.107332 0.000625 -0.001589
0.116124 -0.004529 -0.000269
1.371908 0.629975 -0.001251
0.001970 -0.003419 0.003101
0.256724 0.457453 -0.000443
1.118978 0.462164 0.000063
0.109908 0.018397 -0.001235
2.808412 0.547333 -0.001428
1.175409 0.150403 -0.012670
1.195059 0.143771 0.000390
1.988767 -0.240540 -0.000866
0.947120 -1.065983 0.002497
1.092699 0.708323 -0.000100
1.786633 -0.025278 0.000558
0.020852 0.000028 0.000067
1.160873 0.173292 0.000728
0.446295 0.082501 0.000001
0.835636 -1.439493 0.019311
0.231082 0.245504 0.011409
1.003979 -0.063458 -0.000109
0.778778 1.637294 -0.007608
0.849108 -0.002838 0.001735
2.597152 0.675346 -0.002444
1.098747 0.537389 0.050979
1.855822 0.230092 -0.001908
2.688575 0.528514 0.001723
-0.041569 -0.127335 -0.012717
3.512169 0.701954 -0.764960
1.760429 1.591847 0.020942
0.380920 0.082715 0.000256
0.743988 0.051989 0.000057
0.761098 0.956951 0.000572
0.163124 -0.003878 0.024505
0.730471 0.037570 0.000067
1.158769 -0.112183 -0.001092
0.532097 0.091270 0.008290
0.150171 0.240218 -0.009540
0.890841 -0.362945 0.000610
0.827917 0.633658 -0.001218
0.852604 -0.026785 0.000074
1.613236 0.162747 0.000984
1.370989 0.167604 -0.000065
0.000499 -0.000276 0.002385
2.854491 -1.364050 0.328433
1.247481 -0.164114 -0.001240
0.000133 0.000030 0.001663
1.014377 1.015270 0.002453
2.452959 -6.359110 0.170422
1.102541 -0.084142 -0.000177
0.743912 0.504297 -0.004097
0.700566 -0.564719 0.000623
0.835289 -0.769816 -0.031171
1.658977 -0.643628 -0.063324
0.627713 0.071890 -0.000366
3.155015 -0.652773 -0.005202
1.670296 -0.801537 -0.029556
2.471983 -1.119210 0.137008
2.376052 0.205299 -0.000072
8.589362 -0.413555 -0.016588
0.178393 -0.005602 0.000768
1.674294 -0.000542 -0.000500
1.159309 0.504970 0.001509
0.720642 0.016155 0.000203
1.288429 -0.219092 0.002535
0.405015 -0.362749 0.005345
1.976499 0.180764 0.000328
0.501462 0.024719 0.005221
0.970265 -0.569157 0.002818
0.990099 -0.142890 0.001507
0.843521 -0.119483 0.001187
1.240911 -0.602479 0.025251
2.787043 0.618368 0.000581
2.455056 -0.174662 -0.000306
0.212704 -0.008427 -0.000035
1.089334 2.648724 -0.377351
1.083632 0.282027 -0.001780
2.590702 0.211778 0.000095
2.936172 0.593030 0.001323
0.480399 0.013743 0.000678
0.964691 0.700260 -0.002026
0.382537 -0.248516 -0.001711
3.188263 0.930090 -0.760730
1.271945 0.299117 -0.000595
0.695958 0.037019 -0.002010
0.602291 0.017389 -0.000705
1.904744 -0.440909 0.000154
1.180918 0.478879 -0.000432
7.879423 -0.719166 1.753916
2.742657 0.955791 0.001609
2.302290 0.618065 -0.001613
1.436430 0.018646 0.001423
0.005628 -0.000039 -0.000512
0.030009 0.004710 0.000758
1.457487 0.032918 0.000327
1.796150 -0.036068 0.001476
2.369717 0.307821 0.002482
0.079080 0.012332 -0.000207
4.649071 0.960646 -1.524736
2.893116 0.547190 0.001896
0.000387 0.002675 0.000757
0.245554 -0.011120 -0.000062
4.336524 -9.219907 0.041867
1.571018 0.629727 -0.001842
2.861564 -0.506629 2.749982
-0.004679 -0.014087 -0.003862
0.699064 -0.472112 0.014343
0.024285 0.007170 -0.000900
1.115610 -0.007803 -0.001201
0.677052 -0.181226 0.001434
9.862503 -0.212073 0.000663
0.131548 0.223140 0.007181
2.566178 0.014222 0.001551
0.746390 -0.017049 0.000210
1.241738 0.048494 -0.000064
1.323550 0.845877 0.000794
0.677500 -0.251711 -0.000774
1.937718 0.301607 0.008183
5.237551 -0.974487 0.000807
0.018050 -0.003398 0.000119
0.842736 0.010760 -0.004343
0.756983 0.371605 0.001476
1.959292 0.018439 -0.000496
2.983747 -0.587213 3.757663
1.407995 1.009198 0.000056
1.401153 -2.972754 0.017130
1.536239 0.185104 -0.001244
0.497153 -2.124641 0.098642
0.030177 0.000002 -0.000934
0.533634 -0.527198 0.003369
2.859443 -0.078883 -0.268831
2.191369 -1.439958 0.747982
1.465395 0.034735 0.000076
1.906682 -0.164531 -0.001306
0.630079 -2.044863 0.268889
1.381090 1.753726 -0.009501
1.603308 0.089541 0.000619
1.254747 0.903281 -0.000612
6.985014 0.804360 2.637801
2.171894 0.318121 0.001609
1.429001 0.337525 -0.000444
2.120484 0.079053 0.002134
1.961468 0.043153 0.000247
0.645539 0.841690 0.000631
2.095548 0.560650 0.031493
4.111657 -1.754533 -0.351465
0.472132 -0.001104 0.001315
0.649273 0.019674 -0.000406
0.165736 0.005100 0.000366
0.816814 0.091849 0.000192
2.783477 0.767348 0.005818
1.178978 0.551148 0.002283
0.067958 0.011168 0.000401
0.978941 0.525025 -0.000346
0.955455 0.016473 0.000915
3.356902 -1.185036 0.858399
0.000654 0.002063 -0.002154
2.279020 -5.083706 -0.303977
0.668859 0.847020 -0.000574
1.537787 0.436883 -0.002406
5.404408 -0.254092 0.010045
2.940115 -0.265442 0.003027
1.784577 -0.256116 0.000589
0.717344 1.183691 -0.002074
0.593156 -0.402710 0.000439
-0.000138 0.000489 0.000131
0.013109 -0.007784 -0.001523
0.787301 -0.027694 0.001248
2.981941 -0.275148 -0.000585
0.477111 -0.374299 0.003791
0.926898 0.589848 -0.000592
0.039642 0.037797 0.003425
1.085733 0.739337 -0.000623
0.520206 0.694328 -0.000834
1.548345 0.814675 0.015937
1.529366 -0.562237 0.051352
1.548332 -0.072261 -0.000768
0.099425 -0.000249 -0.001060
0.254417 0.042525 0.000620
0.291657 0.047180 -0.000114
1.227976 1.646959 0.004538
1.031002 0.123073 -0.005120
1.103635 0.056539 0.000349
1.435568 0.281444 -0.000863
2.632265 0.428830 0.000040
2.542232 0.321523 0.001913
0.041048 -1.275377 -0.021392
1.622137 0.123721 -0.005580
4.531869 -0.806718 -0.017425
2.538470 -0.297870 -0.000132
1.877595 0.142994 0.001935
0.925342 -0.056770 0.000037
2.309597 0.427077 0.000173
1.930995 2.126258 0.109852
2.236780 0.299092 0.002526
0.994482 -0.190004 -0.002106
5.430153 3.765739 -0.050274
2.323815 0.403016 -0.000840
0.056184 -0.000258 -0.002252
0.099109 0.029236 0.022765
1.654856 -0.019188 -0.000514
1.168754 0.547666 0.002397
2.499940 -1.511653 -0.791176
3.757731 1.033907 0.003109
0.959175 0.142327 -0.000251
0.534681 0.890731 -0.000850
0.844316 -0.482790 0.004087
0.373682 0.904689 -0.003864