<VTKFile type='UnstructuredGrid' version='1.0' byte_order='LittleEndian' header_type='UInt64'>
<UnstructuredGrid>
<Piece NumberOfCells='500' NumberOfPoints='500'>
<Points>
<DataArray NumberOfComponents='3' type='Float32' Name='Position' format='ascii'>
634.404414 181.728532 -4.728046
1029.059357 188.209033 -16.808274
-93.389285 382.008727 -6.354214
844.560937 239.521166 -6.354196
1029.278797 232.304881 -20.074967
-92.377780 109.334503 -2.355840
1029.253611 152.748402 -21.930599
1028.999307 227.831264 -4.645276
623.630878 185.038977 -4.041231
288.494519 257.677990 -5.203833
1029.136333 154.676584 -29.201451
89.607273 177.603695 -26.399549
285.944095 215.071150 -6.272061
703.735123 131.480762 -4.396043
629.036880 216.897752 -4.346922
1029.359902 252.147987 -15.006536
1029.119520 187.784713 -4.743284
1029.087137 262.783777 -11.868301
332.300083 269.321225 -7.529984
1029.193912 138.980634 -19.474711
1029.180406 166.324271 -12.000646
723.991599 60.788728 -4.585361
1029.076102 228.539705 -26.569211
460.845312 396.338295 -3.645914
1029.103216 249.678682 -17.080837
1028.990499 208.533237 -16.447437
1029.196326 188.604010 -17.100767
1029.136178 186.426719 -8.694585
260.677465 270.024134 -37.620641
1029.023483 265.307023 -7.267714
685.272202 215.252659 -12.114629
453.656900 56.556086 -4.337706
1029.231420 262.000992 -8.732897
1029.083701 205.611464 -10.271489
422.306524 386.274159 -3.543799
1028.995048 200.728172 -8.454059
1029.074164 155.183680 -27.112406
1029.321351 153.281068 -16.377951
633.173033 175.185080 -31.467402
1028.982668 142.206514 -26.628187
1028.977491 138.452308 -6.168599
716.951573 133.943033 -2.685419
528.763262 55.356306 -36.213082
1029.147816 142.387907 -29.713177
846.419374 212.695429 -17.711160
-185.056431 220.319782 -37.646143
312.515081 50.572110 -35.141203
1001.647099 207.948238 -9.184261
1029.339088 256.934836 -22.392138
757.828537 189.943654 -6.875644
1029.096555 251.048780 -9.627166
1028.976346 227.605951 -4.622459
1029.044092 190.888146 -17.070591
340.564412 311.395158 -37.373090
-491.985943 186.824882 -2.177806
1029.140656 185.673421 -7.749712
623.391401 339.579655 -4.535661
-126.119280 181.106939 -30.938509
1029.281029 251.617953 -16.541149
755.813457 45.255560 -11.718656
741.808698 89.960659 -29.216302
1029.144067 251.298274 -9.433218
961.073178 292.232027 -8.082126
1029.092811 199.203232 -10.424503
1029.099325 207.296483 -29.207397
362.625907 264.751833 -36.946947
684.795091 161.103097 -36.527139
1029.003818 260.121252 -19.353480
1029.219105 141.565174 -7.227381
1029.030335 140.847806 -10.327024
1029.210581 151.177371 -10.058554
-92.803874 181.116485 -34.819173
422.743582 386.163063 -3.664093
1029.370072 249.889205 -17.917543
644.681691 222.788714 -3.705785
595.056978 214.148300 -30.969997
1027.621120 203.078442 -27.222792
1029.088630 226.583231 -26.791639
688.698249 192.141235 -7.882036
694.160274 182.397147 -13.225769
928.771594 128.424326 -6.255635
1029.075219 199.084609 -13.594524
1029.306689 250.607125 -21.757990
1029.275264 140.263570 -17.033113
1029.110714 228.986199 -22.802082
726.112137 135.678327 -4.052750
1029.118126 264.933374 -10.231840
1029.150350 191.275146 -16.086105
1029.304192 140.303527 -20.675616
1029.296586 152.742705 -21.728450
503.142140 201.604823 -33.444843
1029.317875 251.504023 -16.457303
1029.142010 196.584875 -14.344229
1029.292726 155.217574 -29.018318
1029.213633 188.409014 -16.858498
529.599150 204.852607 -1.800223
363.523775 72.579667 -0.502424
1029.083866 230.763947 -4.547148
1029.337316 249.376128 -23.538960
1029.006290 140.497051 -6.606818
1029.101994 154.322595 -29.456101
241.387967 336.400816 -12.641184
1029.023898 231.951962 -20.916878
-432.319878 176.868396 -26.665884
-356.571248 250.684788 -20.042901
1029.244989 230.300666 -9.687840
1029.187334 191.618517 -20.456878
1029.318341 165.992030 -17.959244
-262.383620 265.267714 -19.962335
1028.977543 140.299234 -17.001177
1029.189046 140.141349 -19.420439
-501.367117 192.525943 -9.241180
372.862962 366.901013 -3.075391
1029.088515 191.145182 -20.070877
1029.119364 214.611647 -7.296110
1029.162892 231.219450 -28.952026
439.503057 74.107635 -20.937090
1029.069190 250.884586 -9.429735
-115.929996 385.961265 -5.733623
1029.161448 191.361488 -22.229912
249.600171 159.127951 -35.914112
1029.017562 182.407524 -4.431521
1029.203531 259.133438 -14.979347
1029.386622 140.349597 -17.517165
823.098087 212.685268 -8.839563
122.302290 222.316935 -33.699929
377.639320 41.467018 -2.348081
712.139633 212.639553 -7.082736
1029.257480 229.715106 -21.899225
1029.221177 141.549552 -28.168380
555.238056 59.647012 -5.056316
-156.268169 214.695357 -5.647379
1029.184340 250.622315 -9.354484
1029.115912 138.104862 -11.754595
1029.020587 188.147850 -23.823336
1029.259073 166.069571 -28.080659
1029.121508 190.466885 -8.136797
1029.124786 206.293152 -17.948811
422.237684 386.356569 -3.913509
-154.873214 213.593354 -4.109975
1028.976683 198.275371 -20.143932
1029.216848 231.067388 -27.441933
830.001893 169.525366 -36.392183
1029.134359 189.002731 -8.993922
1028.982673 228.031097 -11.093356
1029.039157 263.371907 -6.178223
891.440884 84.458511 -20.638386
1029.064718 230.128527 -9.890916
1029.261154 171.158954 -29.184869
381.472231 52.266270 -10.001146
1029.152980 136.636137 -10.985803
1028.980528 254.689233 -4.344013
1029.072949 189.720784 -13.672791
1029.126679 229.823613 -11.368067
1029.116635 266.379400 -22.171789
859.540467 310.851288 -11.649496
1029.194718 140.926378 -10.790143
126.426963 193.416659 -31.304300
506.546796 148.352252 -2.555395
538.876200 188.026330 -5.579627
914.684822 218.817796 -12.562714
733.802634 345.459194 -11.982095
1029.165082 249.277036 -18.436584
1029.236544 229.448986 -17.039859
597.355647 109.166252 -1.853639
1029.046234 203.253687 -14.894425
1029.162656 250.509853 -9.214404
343.250774 87.177524 -26.295651
557.440746 4.200327 -13.337072
687.882184 30.094418 -12.548412
162.485431 219.729916 -15.316831
1028.993105 141.600352 -27.791848
1029.312762 229.305865 -15.668280
812.402262 221.779049 -4.123014
1029.207264 189.143456 -11.935037
1029.079315 195.523317 -11.910939
-521.944430 274.726155 -37.144109
1029.232534 189.628657 -19.390733
969.598764 188.983326 -9.366260
1029.259166 229.986926 -17.220021
1029.103068 198.247599 -27.320136
1028.989402 252.799752 -25.582654
1029.160703 187.417509 -7.500706
1029.086343 261.955222 -10.171866
90.190514 179.627016 -26.159930
1029.196213 265.861447 -23.563606
1029.060599 250.741090 -23.158830
1028.978047 263.287548 -11.028804
496.885682 115.797134 -17.424803
-115.393886 317.928844 -3.546083
1029.184939 230.710144 -21.207296
1029.139103 188.001014 -24.091368
1029.296602 165.116357 -11.684768
771.182512 212.663064 -28.661125
359.383048 323.050220 -2.712169
1029.246652 152.097065 -21.274371
1029.238727 166.185289 -18.220476
686.875659 25.720803 -12.478458
1029.317852 166.310171 -11.196974
1029.074538 141.753036 -28.112455
1028.978325 226.681346 -19.098767
1029.070636 229.001683 -26.946571
364.889602 308.422900 -35.051898
1029.076318 154.088305 -26.648681
1029.022982 123.593200 -7.574731
1029.134247 165.425647 -17.916420
700.170802 73.505004 -4.036000
1028.993193 251.027087 -9.360745
1029.191202 138.906774 -12.100933
-69.206313 186.603533 -2.751353
790.843373 212.671420 -15.948524
1028.987540 207.207378 -15.083185
1029.256612 249.121303 -18.632310
1029.083419 261.565138 -18.628778
1029.186294 141.644426 -26.875536
1029.125480 163.915666 -20.865933
1029.067550 187.903334 -11.437351
780.158774 212.668376 -28.398868
1028.977323 191.701105 -10.560304
63.854050 165.244904 -34.616841
1029.130325 227.908705 -11.363294
1029.161652 187.907923 -23.740786
526.371583 38.442268 -27.859487
1028.994581 191.539402 -20.807746
1029.089074 228.582486 -11.134421
1029.032689 139.337093 -11.491075
866.676685 181.968187 -26.621316
372.620258 58.008078 -18.904551
932.783755 96.755408 -20.858911
1029.118109 188.779216 -7.828990
1029.058995 154.448558 -27.720059
431.909000 254.555876 0.000849
522.848993 210.377302 -35.651504
1029.130825 162.909080 -15.085360
1029.287445 139.578995 -9.591735
530.344181 386.693047 -5.669693
1029.138655 191.579951 -20.417899
734.810462 219.981346 -25.948524
696.664433 180.799288 -19.938063
1029.215009 263.230013 -9.648705
1029.156459 142.382262 -28.460508
1029.034368 200.459019 -7.800582
1029.114565 185.116480 -26.917102
1029.027159 188.449629 -8.741109
1029.088616 227.990706 -18.525192
1028.995233 188.013687 -23.848952
765.031567 192.170510 -30.103184
1028.976192 263.358560 -7.415076
1028.983311 138.661981 -6.366192
355.949512 27.718039 -30.531340
1029.056723 204.324582 -9.094241
1028.993735 205.652109 -16.980837
1029.000713 266.680231 -14.841078
1029.019230 264.554280 -17.341043
1029.020443 260.195748 -17.082613
682.034866 168.638257 -6.032001
1029.136234 190.187559 -24.030354
71.950361 331.875291 -30.464597
119.271080 214.222620 -36.892108
656.803114 184.622703 -5.636250
316.719478 181.183044 -17.598915
654.720630 223.565914 -3.864860
1028.992364 140.724015 -18.226469
1029.094447 201.959905 -15.364515
1029.288175 250.532170 -11.240318
1028.982169 140.578835 -8.523235
368.957939 50.645270 -24.245596
-499.165961 188.918495 -25.241295
1028.991480 184.793799 -26.995024
-4.160828 275.311808 -4.305235
1029.263509 251.378450 -21.648380
-405.946957 125.879668 -36.072263
1029.055936 181.494904 -18.997324
311.315469 150.346426 -10.427388
1029.168282 189.604127 -16.148881
488.990571 113.628474 -26.495184
1029.060040 188.469406 -26.483053
1029.156936 166.796368 -19.504463
1029.062033 251.332961 -17.754174
932.488356 219.377418 -19.744305
1029.058731 251.612451 -21.507725
1029.209896 251.530546 -18.765869
1029.226357 141.141672 -26.962504
1029.035831 258.818714 -21.723534
1029.137454 191.840832 -7.148699
498.879474 32.916858 -27.422978
1028.992617 143.275617 -33.765066
366.305527 376.273208 -3.672589
1029.052570 231.238678 -23.593649
1028.981230 228.890302 -26.848342
1011.153743 252.746238 -6.551155
1029.019086 186.784368 -8.920433
1029.062089 229.606706 -11.842059
-493.294198 186.006836 -4.226127
339.989794 23.888940 -33.825534
995.236888 189.836065 -30.170780
1029.055737 139.105929 -11.640209
650.038465 81.077764 -32.481414
1029.084872 192.212440 -20.238293
-181.085914 212.800099 -5.138426
543.322759 188.421132 -12.673104
1028.996143 151.715862 -17.273462
1028.994285 231.174448 -6.028807
411.591621 245.039275 -3.410562
604.482168 214.785243 -4.631500
1029.256785 153.702561 -22.613375
1029.274629 189.295571 -19.419725
1028.980026 266.824802 -15.162600
672.839773 52.243592 -28.065963
1029.096721 252.600993 -23.946544
1029.235200 153.879772 -27.568629
-221.171409 213.287960 -36.215840
1029.187861 266.035594 -23.100899
1029.273908 151.732683 -17.452964
1029.014351 139.407205 -11.818104
-53.095986 209.683669 -4.676458
1028.984348 184.826144 -32.941579
729.884549 137.194930 -3.412558
1028.980649 249.835231 -21.175183
912.710959 189.495049 -11.081818
1029.188393 230.634547 -28.444128
1029.080799 230.197874 -9.454699
735.411209 213.918081 -30.902154
960.322092 289.829187 -7.109318
1029.065069 166.705688 -29.107270
1029.008500 206.564596 -15.792315
643.199284 152.757001 -2.296519
1029.067852 141.603446 -27.818469
1029.069269 165.176413 -18.524279
1029.133526 191.427176 -10.540003
493.144310 120.704761 -2.590982
306.681035 180.186036 -5.362672
685.561375 25.095813 -25.734551
1029.220334 140.786220 -22.054353
383.058986 254.247492 -27.269756
1029.175277 141.288491 -25.554240
492.192885 142.314595 -30.981462
1028.983994 232.598256 -35.049830
705.467232 131.606564 -4.651003
1029.228811 229.056026 -21.423484
1029.263211 229.727649 -8.828450
507.179445 188.037928 -29.281859
1029.255636 140.847097 -10.347196
1029.144526 262.952322 -22.063480
721.266310 68.398802 -33.008327
1029.093018 189.431262 -22.359625
330.836552 323.373632 -2.528658
1029.246426 229.393185 -16.587050
1029.139657 191.405911 -25.144298
1029.093379 191.825392 -10.545870
1029.146176 187.848913 -9.040993
1029.240783 141.515258 -27.379984
-183.657611 368.982685 -6.138124
1029.025452 191.423095 -15.451683
591.655672 366.619130 -5.654172
316.570589 207.251500 -26.138662
664.417556 17.715204 -10.263151
1029.083022 262.773429 -19.497108
1029.086616 250.371744 -7.973811
1029.037398 262.781573 -26.167907
1029.137774 227.226450 -10.712844
1029.144133 141.824809 -12.094427
1028.988883 264.995240 -7.280992
1029.072346 230.843770 -24.585391
545.425884 8.573049 -28.674901
687.221671 25.044745 -11.860708
1029.022948 190.328694 -22.596931
383.684260 264.314105 -20.025348
-102.018526 106.576750 -26.041076
747.174680 137.449352 -5.988108
1028.999467 189.009184 -23.377562
237.080266 200.731847 -5.558611
1029.220458 185.847851 -11.251454
1029.284457 252.216365 -23.460776
1029.129728 164.701498 -20.667179
1029.238084 189.379812 -19.425016
908.939713 287.875415 -12.436216
1028.998408 152.824558 -6.281295
1029.029557 189.622144 -9.059488
1029.097936 262.061277 -16.866182
1029.292222 139.341657 -20.537809
1029.028994 140.404660 -8.938870
864.667125 78.353547 -6.663438
1029.005844 140.255329 -9.204981
-500.343235 192.866151 -15.004278
422.364659 386.234165 -5.736371
1029.087163 227.049554 -11.271518
770.568018 188.289737 -19.293291
981.979168 283.994386 -17.987236
44.028659 17.694710 -11.522892
1029.284670 252.620977 -25.589771
-254.452566 212.976424 -37.598201
1029.146218 191.360374 -20.366622
1029.105913 190.489401 -8.928432
1028.984297 152.167014 -15.410153
542.673060 196.953965 -34.311046
1028.977495 139.629717 -6.673073
124.632594 253.057946 -34.759425
1029.217982 189.239624 -24.197824
-104.477899 176.851872 -5.752159
805.361828 212.678350 -9.199199
-179.817471 28.628452 -26.252959
1029.331110 152.525238 -20.330589
124.582689 231.514377 -36.241867
1029.187656 251.079710 -22.841616
1029.318670 140.222168 -7.695200
552.607022 171.089204 -6.109321
1029.189180 152.203793 -9.786901
1028.984107 199.209111 -10.400203
1029.020630 165.105675 -19.151886
1029.009679 191.458190 -6.372217
1029.190473 154.549839 -27.821762
1029.119299 138.490448 -7.169665
-75.677045 387.942868 -12.600453
1028.992859 189.529076 -21.214293
1029.200837 141.506837 -28.207214
1029.122687 189.627835 -12.980992
1029.110689 230.414989 -7.779148
312.709216 143.318735 -9.859637
1029.067094 190.358882 -21.601804
1029.149717 228.931587 -26.989552
500.014244 42.360333 -35.197614
687.521789 342.103899 -6.518580
1029.126705 199.221430 -20.196635
1028.978204 191.616251 -5.973972
1029.154759 191.002642 -23.581673
1029.118563 166.532241 -28.691753
797.685459 223.557026 -4.348013
1029.114841 139.297521 -11.567960
411.558032 245.110662 -3.276845
1029.136270 191.163161 -23.318089
707.246466 31.530048 -10.659229
1029.105731 205.069380 -15.635904
1028.991614 151.329544 -19.248305
-500.382783 193.065424 -15.224872
372.583227 54.707716 -20.816006
1029.120078 187.702432 -9.310782
1029.163817 184.148452 -21.974278
1029.312471 248.234907 -9.873754
593.519405 140.058220 -33.479979
1029.328978 136.843542 -18.881703
1029.094399 248.978200 -25.149447
1029.222021 229.310936 -11.098716
1029.172426 140.413768 -21.018412
1029.112981 188.285432 -16.581198
1029.118423 167.132526 -29.081801
1029.032436 162.086172 -8.090933
1029.041121 142.217793 -6.243565
1029.236015 251.014534 -17.909152
498.580923 212.914360 -35.220812
587.285305 239.899251 -1.752170
1028.977966 139.590846 -10.513834
1029.013381 155.959542 -27.775785
698.979955 178.400917 -26.522316
377.495874 256.083938 -33.659370
1029.030631 206.195502 -29.210784
1029.020288 191.442614 -6.282925
1029.122752 191.332256 -15.803695
1029.022018 152.098673 -9.721617
1028.979961 185.456998 -7.675500
289.739825 124.955204 -32.256991
1029.034602 250.235039 -24.035320
1028.995501 195.148381 -11.832256
372.583433 59.776160 -12.460715
-147.421424 219.407633 -6.239621
1029.121923 139.486113 -10.572183
1028.993989 138.911566 -6.091481
1029.016906 187.725508 -9.274138
967.496922 217.323268 -28.270199
1029.281845 164.317919 -10.568704
271.475815 280.544237 -37.736594
809.505713 301.496168 -5.840377
124.473147 228.965193 -36.131354
697.031589 27.972422 -8.781492
400.884835 273.474580 -5.355285
1029.080642 139.809185 -8.448109
655.722284 160.159446 -2.326402
1029.190996 251.339016 -24.093351
823.576133 212.679033 -8.359305
339.531994 223.076768 -19.410156
167.444080 213.934827 -37.129875
1029.091622 188.026010 -8.426024
534.425516 149.269927 -1.571287
1029.233175 246.857364 -23.058501
736.692001 352.655355 -26.106271
1029.182799 226.565878 -26.855878
1029.101006 187.965896 -24.494495
1029.001557 265.025473 -24.043119
1029.035127 184.774956 -22.472807
1029.077783 191.459570 -6.368736
1029.147602 265.728428 -24.808093
1028.979811 266.614511 -21.884949
796.444796 340.719064 -24.026038
89.906461 178.662139 -26.245521
378.075462 7.721897 -0.963226
1029.072314 141.391280 -11.738849
831.351066 105.838069 -5.234995
1029.042814 142.222528 -5.287601
850.597464 290.767559 -6.662607
1002.759799 207.588632 -17.614359
</DataArray>
</Points>
<PointData>
<DataArray NumberOfComponents='1' type='Int32' Name='ParticleType' format='ascii'>
1
1
1
1
1
1
1
1
1
1
1
1
1
1
1
1
1
1
1
1
1
1
1
1
1
1
1
1
1
1
1
1
1
1
1
1
1
1
1
1
1
1
1
1
1
1
1
1
1
1
1
1
1
1
1
1
1
1
1
1
1
1
1
1
1
1
1
1
1
1
1
1
1
1
1
1
1
1
1
1
1
1
1
1
1
1
1
1
1
1
1
1
1
1
1
1
1
1
1
1
1
1
1
1
1
1
1
1
1
1
1
1
1
1
1
1
1
1
1
1
1
1
1
1
1
1
1
1
1
1
1
1
1
1
1
1
1
1
1
1
1
1
1
1
1
1
1
1
1
1
1
1
1
1
1
1
1
1
1
1
1
1
1
1
1
1
1
1
1
1
1
1
1
1
1
1
1
1
1
1
1
1
1
1
1
1
1
1
1
1
1
1
1
1
1
1
1
1
1
1
1
1
1
1
1
1
1
1
1
1
1
1
1
1
1
1
1
1
1
1
1
1
1
1
1
1
1
1
1
1
1
1
1
1
1
1
1
1
1
1
1
1
1
1
1
1
1
1
1
1
1
1
1
1
1
1
1
1
1
1
1
1
1
1
1
1
1
1
1
1
1
1
1
1
1
1
1
1
1
1
1
1
1
1
1
1
1
1
1
1
1
1
1
1
1
1
1
1
1
1
1
1
1
1
1
1
1
1
1
1
1
1
1
1
1
1
1
1
1
1
1
1
1
1
1
1
1
1
1
1
1
1
1
1
1
1
1
1
1
1
1
1
1
1
1
1
1
1
1
1
1
1
1
1
1
1
1
1
1
1
1
1
1
1
1
1
1
1
1
1
1
1
1
1
1
1
1
1
1
1
1
1
1
1
1
1
1
1
1
1
1
1
1
1
1
1
1
1
1
1
1
1
1
1
1
1
1
1
1
1
1
1
1
1
1
1
1
1
1
1
1
1
1
1
1
1
1
1
1
1
1
1
1
1
1
1
1
1
1
1
1
1
1
1
1
1
1
1
1
1
1
1
1
1
1
1
1
1
1
1
1
1
1
1
1
1
1
1
1
1
1
1
1
1
1
1
1
1
1
1
1
1
1
1
1
1
1
1
1
1
1
1
1
1
1
1
1
1
1
1
</DataArray>
<DataArray NumberOfComponents='1' type='Int32' Name='ParticleID' format='ascii'>
0
1
2
3
4
5
6
7
8
9
10
11
12
13
14
15
16
17
18
19
20
21
22
23
24
25
26
27
28
29
30
31
32
33
34
35
36
37
38
39
40
41
42
43
44
45
46
47
48
49
50
51
52
53
54
55
56
57
58
59
60
61
62
63
64
65
66
67
68
69
70
71
72
73
74
75
76
77
78
79
80
81
82
83
84
85
86
87
88
89
90
91
92
93
94
95
96
97
98
99
100
101
102
103
104
105
106
107
108
109
110
111
112
113
114
115
116
117
118
119
120
121
122
123
124
125
126
127
128
129
130
131
132
133
134
135
136
137
138
139
140
141
142
143
144
145
146
147
148
149
150
151
152
153
154
155
156
157
158
159
160
161
162
163
164
165
166
167
168
169
170
171
172
173
174
175
176
177
178
179
180
181
182
183
184
185
186
187
188
189
190
191
192
193
194
195
196
197
198
199
200
201
202
203
204
205
206
207
208
209
210
211
212
213
214
215
216
217
218
219
220
221
222
223
224
225
226
227
228
229
230
231
232
233
234
235
236
237
238
239
240
241
242
243
244
245
246
247
248
249
250
251
252
253
254
255
256
257
258
259
260
261
262
263
264
265
266
267
268
269
270
271
272
273
274
275
276
277
278
279
280
281
282
283
284
285
286
287
288
289
290
291
292
293
294
295
296
297
298
299
300
301
302
303
304
305
306
307
308
309
310
311
312
313
314
315
316
317
318
319
320
321
322
323
324
325
326
327
328
329
330
331
332
333
334
335
336
337
338
339
340
341
342
343
344
345
346
347
348
349
350
351
352
353
354
355
356
357
358
359
360
361
362
363
364
365
366
367
368
369
370
371
372
373
374
375
376
377
378
379
380
381
382
383
384
385
386
387
388
389
390
391
392
393
394
395
396
397
398
399
400
401
402
403
404
405
406
407
408
409
410
411
412
413
414
415
416
417
418
419
420
421
422
423
424
425
426
427
428
429
430
431
432
433
434
435
436
437
438
439
440
441
442
443
444
445
446
447
448
449
450
451
452
453
454
455
456
457
458
459
460
461
462
463
464
465
466
467
468
469
470
471
472
473
474
475
476
477
478
479
480
481
482
483
484
485
486
487
488
489
490
491
492
493
494
495
496
497
498
499
</DataArray>
<DataArray NumberOfComponents='1' type='Int8' Name='IsActive' format='ascii'>
1
0
1
1
0
1
0
0
1
1
0
1
1
1
1
0
0
0
1
0
0
1
0
1
0
0
0
0
1
0
1
1
0
0
0
0
0
0
1
0
0
1
1
0
0
1
1
1
0
1
0
0
0
1
1
0
1
1
0
1
1
0
1
0
0
1
1
0
0
0
0
1
0
0
1
1
1
0
0
1
1
0
0
0
0
1
0
0
0
0
1
0
0
0
0
1
1
0
0
0
0
1
0
1
1
0
0
0
1
0
0
1
1
0
0
0
1
0
1
0
1
0
0
0
0
1
0
0
0
0
1
1
0
0
0
0
0
0
0
1
0
0
1
0
0
0
1
0
0
0
0
0
0
0
0
1
0
1
1
1
1
1
0
0
1
0
0
1
1
1
1
0
0
1
0
0
1
0
1
0
0
0
0
0
1
0
0
0
1
1
0
0
0
0
1
0
0
1
0
0
0
0
1
0
0
0
1
0
0
1
0
0
0
0
0
0
0
0
0
1
0
0
1
0
0
0
1
0
1
0
0
0
1
0
0
1
0
1
1
0
0
0
0
0
0
0
0
0
0
1
0
0
0
0
0
1
0
1
1
1
1
1
0
0
0
0
1
1
0
1
0
1
0
1
0
1
0
0
0
1
0
0
0
0
0
1
0
1
0
0
1
0
0
1
1
1
0
1
0
1
1
0
0
0
1
0
0
0
1
0
0
1
0
0
0
1
0
1
0
1
0
0
1
1
0
0
1
0
0
0
1
1
1
0
1
0
1
0
1
0
0
1
0
0
1
0
1
0
0
0
0
0
1
0
1
1
1
0
0
0
0
0
0
0
1
1
0
1
1
1
0
1
0
0
0
0
1
0
0
0
0
0
1
0
1
0
0
1
1
1
0
1
0
0
0
1
0
1
0
1
0
1
0
1
0
0
1
0
0
0
0
0
0
1
0
0
0
0
1
0
0
1
1
0
0
0
0
1
0
0
0
1
0
0
1
0
0
0
0
1
0
0
0
0
0
0
0
0
0
1
1
0
0
1
1
0
0
0
0
0
1
0
0
0
1
0
0
0
1
0
1
1
1
1
0
0
1
0
0
1
1
0
1
0
1
0
0
0
0
0
0
0
1
1
0
0
1
0
1
1
</DataArray>
<DataArray NumberOfComponents='1' type='Int32' Name='ParticleTetID' format='ascii'>
72956
-61515
11719
62317
-58962
14292
-66558
-58952
61220
29972
-66561
98736
30404
62102
68977
-64917
-61508
-68099
37101
-66554
-59783
58124
-58961
81758
-64916
-70586
-61515
-61512
32561
-68100
62915
52165
-68099
-72204
-112396
-72204
-66561
-66555
58244
-66557
-66585
64190
56735
-66560
-69092
9520
46744
58397
-64920
63201
-64914
-58952
-61515
33875
19262
-61512
69031
5396
-64917
63472
65102
-64914
63363
-72203
-72213
37313
56483
-64917
-66552
-66551
-66552
7089
-112396
-64916
65990
62762
72210
-58965
-63131
65308
76843
-72207
-64920
-66554
-58961
62136
-68099
-61515
-66557
-66558
64833
-64917
-72207
-66561
-61515
64890
85864
-58952
-64919
-66548
-66561
34366
-58962
3808
5067
-58955
-61518
-59786
6343
-66554
-66554
2273
49068
-61518
-70584
-58965
87804
-64914
13231
-61518
96257
-61508
-64917
-66554
-62952
40066
-146594
-63024
-58962
-66560
75728
7508
-64914
-66588
-61518
-59791
-61512
-72207
-112396
7508
-72210
-58965
59127
-61512
-58955
-68096
65943
-58955
-59791
-156163
-66588
-64911
-61515
-58955
-68105
60160
-66551
34106
69104
64855
72509
70780
-64916
-58958
68618
-72207
-64914
50932
61962
70204
88201
-66560
-58958
62948
-61511
-72203
10690
-61514
61655
-58958
-72213
-64919
-61512
-68099
98736
-68105
-64919
-68099
52819
17892
-58962
-61518
-59783
-63014
28658
-66558
-59786
75407
-59783
-66560
-58958
-58965
40767
-66557
-66588
-59786
57170
-64914
-66551
16578
-63044
-72207
-64916
-68102
-66561
-59788
-61511
-63015
-61512
100246
-58955
-61518
72840
-61518
-58955
-66551
59428
-84717
59951
-61512
-66561
-136563
64907
-59785
-66551
61418
-61518
62938
63115
-68099
-66560
-72204
-61521
-61512
-58958
-61518
-63212
-68100
-66585
39596
-72204
-72207
-68103
-68102
-64917
56467
-61518
40622
25720
63146
43694
65988
-66554
-72207
-64913
-66551
85174
19217
-61521
8191
-64920
2213
-61514
43709
-61515
52823
-61517
-59786
-64916
59803
-64920
-64916
-66561
-64920
-61512
52484
-66564
26424
-58961
-58965
76033
-61512
-58955
19262
25361
69708
-66551
62402
-61518
7525
58090
-66555
-58952
-126563
67411
-66558
-61514
-68103
61572
-64919
-66561
7415
-68105
-66555
-66551
10496
-61520
64116
-64920
71950
-58965
-58955
62941
63363
-59791
-72207
56916
-66560
-59786
-61512
51570
48619
75413
-66557
82263
-66557
56102
-58968
62102
-58962
-58955
66937
-66551
-68105
58333
-61518
29196
-58958
-61518
-61512
-61512
-66561
9739
-61515
67051
37415
63509
-68102
-64914
-68105
-58955
-66551
-68100
-58961
61734
75407
-61518
82198
12592
62030
-61518
24679
-61511
-64920
-59788
-61514
57154
-66548
-61512
-68102
-66557
-66551
63613
-66551
2276
-112399
-58955
63080
63385
27112
-64919
7559
-61518
-61512
-66555
68433
-66552
90510
-61518
882
-62951
7769
-66558
92064
-64920
-66551
76772
-66552
-72203
-59786
-61508
-66561
-66588
401
-61518
-66560
-61511
-58956
45131
-61518
-58965
64744
64837
-72210
-61509
-61518
-59791
63038
-66551
-126559
-61518
63545
-72207
-66554
2276
-85665
-61512
-61518
-64913
66453
-66591
-64919
-58955
-66557
-61515
-59791
-59782
-66548
-64916
51694
69948
-66551
-66561
63118
82391
-72213
-61508
-61515
-66552
-61512
95129
-64919
-72203
-84632
13519
-66551
-66548
-61512
61644
-59783
35279
62210
91184
63545
-127033
-66551
57762
-64919
-62952
45007
91823
-61512
75186
-64919
63281
-58965
-61518
-68105
-61518
-61508
-68105
-68106
63407
98736
-153844
-66551
57404
-66548
61795
58400
</DataArray>
<DataArray NumberOfComponents='3' type='Float32' Name='vels' format='ascii'>
0.709998 0.012786 -0.001408
2.941750 0.743093 0.251364
0.111361 -0.001894 0.000959
1.135588 -0.105826 -0.000362
4.011166 -0.808442 0.007605
0.259978 0.000581 -0.000036
5.291425 0.658114 0.015048
1.176154 -0.254865 0.050298
0.127338 0.000369 -0.001140
0.174550 0.104722 -0.000110
4.043204 0.516567 -0.062035
0.001522 0.000861 0.001324
0.026383 0.013469 0.001031
0.007792 0.001262 0.001806
0.514104 -0.002770 0.001524
4.781214 -0.633258 0.223552
2.072237 0.492204 0.162694
1.841632 -0.359408 0.096556
2.053086 0.526655 -0.002022
4.618366 0.202199 0.374453
4.057130 0.583726 0.325260
0.979158 0.234439 -0.000851
3.564954 -0.948543 -0.100939
0.006789 0.000177 0.000909
5.081494 -0.728568 0.061442
2.709453 -0.571234 0.037044
2.890267 0.733475 0.271122
2.291721 0.555347 0.251364
0.764105 0.847058 -0.003783
0.600488 -0.175699 0.015577
0.236819 -0.001043 -0.000625
2.879574 0.670416 -0.301487
3.213363 -0.761119 -0.003224
1.656845 -0.012767 0.231690
30.832558 8.406263 0.242404
1.694059 0.173883 0.293947
3.361597 0.485264 0.057820
5.072144 0.616756 0.203979
1.519872 0.037420 0.002254
4.822554 0.159554 -0.071552
0.163137 0.014290 0.007623
0.545719 0.072832 0.001227
0.575625 0.126921 0.000203
3.522981 0.454183 -0.022000
1.981235 -0.030602 0.001087
0.017673 0.002274 -0.000003
0.681648 -1.287763 -0.000780
-0.002320 0.010381 0.003231
5.038774 -0.652624 0.013047
0.372105 0.002714 0.000578
2.926561 -0.297746 0.581025
1.155041 -0.250378 0.045583
2.831417 0.656188 0.157502
0.114745 0.001430 0.000144
-0.003139 0.000908 -0.000397
2.459462 0.587685 0.168515
1.107749 -0.104863 -0.001631
0.597647 0.000314 -0.000374
4.325011 -0.485807 0.474073
0.884005 0.253216 -0.000159
1.340084 0.233929 -0.001170
3.009809 -0.323029 0.523657
0.734005 -0.218197 0.010386
2.169836 0.361286 0.178099
1.625300 0.032475 -0.102624
1.283268 0.050333 0.120625
0.905946 0.077874 0.002628
4.340364 -0.231916 0.365021
3.114425 0.129711 0.500337
4.121013 0.480241 0.104173
3.314428 0.340714 0.441299
0.327777 0.011351 -0.002424
46.675339 14.517866 -0.076229
4.966831 -0.741021 0.103249
0.526115 -0.007683 0.000462
0.205156 0.000930 0.002028
2.207430 0.314963 -0.240127
4.058145 -0.762731 -0.344492
1.889371 0.057292 0.002064
0.086925 -0.004291 -0.000509
1.276544 0.793242 -0.009129
2.447300 0.404613 0.136695
4.955756 -0.666599 0.026369
5.270291 0.597518 0.093265
3.790543 -0.755850 0.004429
0.785749 0.108081 -0.000270
3.198346 -0.576469 0.091015
2.891380 0.658313 0.072510
4.708169 0.714293 0.041555
5.286538 0.662013 0.016323
0.399907 -0.210471 0.000952
4.335292 -0.493674 0.469468
2.376679 0.415278 0.303110
3.978817 0.514039 -0.035953
2.925429 0.736889 0.253986
0.201250 -0.003071 0.000345
0.067918 0.002767 0.000738
1.565890 -0.337596 0.089770
4.657912 -0.665986 -0.017331
0.402313 0.016930 0.069481
4.122142 0.520750 -0.092827
0.262247 0.698118 -0.001282
4.068510 -0.838672 0.002245
-0.002362 -0.000008 -0.001106
0.054850 0.008815 -0.000450
3.529941 -0.711878 0.030954
2.701473 0.675651 0.006233
5.068028 0.739679 0.098900
0.028383 0.004603 -0.000212
5.282705 0.607003 0.090999
4.672356 0.220515 0.340548
0.000640 0.002432 0.000644
0.616349 0.486264 0.023111
2.719856 0.689432 0.014472
1.875758 -0.371275 0.170103
3.526443 -0.813141 -0.314200
-0.000223 -0.000086 -0.001752
2.977139 -0.317598 0.549789
0.214884 0.029801 -0.000326
2.856396 0.655576 -0.021302
0.439020 0.171108 0.001791
1.562766 0.369950 0.099079
5.097804 -0.739710 -0.004191
5.187976 0.534039 0.131804
2.184550 -0.057329 -0.002896
-0.004204 -0.006784 -0.000093
0.063052 -0.112684 0.126129
0.384938 -0.001348 0.000332
3.941319 -0.939718 0.019078
3.094111 0.466580 0.051646
0.762830 0.047450 0.000521
0.027021 -0.000023 -0.000925
2.947628 -0.317004 0.559127
3.315421 0.229466 0.303735
3.114699 0.812712 -0.006021
3.981705 0.784788 -0.179278
2.397503 0.576482 0.045044
2.262234 -0.103763 0.199135
46.605008 17.425592 -0.121316
0.372211 0.001824 -0.003098
2.453705 0.036037 -0.002453
3.273935 -0.703619 -0.146819
1.687410 0.102297 -0.000079
2.267504 0.537684 0.170558
3.031390 -0.650702 0.168210
0.798581 -0.043527 0.108054
1.742705 0.491095 0.002705
3.485382 -0.705401 0.047642
4.244217 0.718171 -0.088138
0.078912 -0.035162 -0.038296
3.309975 0.272851 0.268077
0.028963 -0.002091 0.012138
3.143853 0.750221 0.009430
3.065246 -0.673178 0.198509
4.241233 -0.744797 0.007929
3.036894 -0.761523 0.007845
3.991307 0.425104 0.155119
7.763903 -2.862720 -0.010698
0.025257 0.042271 0.000424
0.444349 0.000353 0.000804
0.042259 0.000208 -0.003335
1.982087 -0.506804 0.000557
4.864729 -0.743999 0.144699
4.023324 -0.834694 0.046985
0.002828 -0.000019 -0.000334
2.333838 0.209392 0.090805
2.983754 -0.330680 0.536378
0.142680 -0.125248 0.007435
0.692501 0.004449 0.001260
1.735870 0.484523 0.003454
3.402047 -0.022906 -0.035100
2.912069 0.446903 0.058844
4.195891 -0.823559 0.007726
0.096248 -0.000311 0.002864
3.421469 0.801853 0.232091
1.914013 0.373947 0.333840
0.000322 0.000163 0.000125
3.917611 0.961390 0.066384
0.006319 0.000009 0.000334
3.998002 -0.839101 0.052347
2.110943 0.365026 -0.216448
4.558290 -0.718325 -0.153658
2.517882 0.602668 0.087560
2.602964 -0.618944 0.038887
-0.004561 0.003192 -0.000438
3.746715 -0.624846 0.010220
4.537418 -0.639668 -0.001990
2.525898 -0.494562 0.096555
1.014123 1.566215 0.001121
0.340330 0.001934 -0.001096
4.022468 -0.876011 0.007542
3.114020 0.835475 0.004567
4.032579 0.575637 0.282121
1.501351 -0.039478 -0.000088
0.118332 0.060626 0.002914