<VTKFile type='UnstructuredGrid' version='1.0' byte_order='LittleEndian' header_type='UInt64'>
<UnstructuredGrid>
<Piece NumberOfCells='500' NumberOfPoints='500'>
<Points>
<DataArray NumberOfComponents='3' type='Float32' Name='Position' format='ascii'>
24.988123 233.658838 -4.923392
737.972802 170.007988 -17.167360
-349.194624 320.120857 -5.854260
-119.333678 283.246811 -10.222238
964.892507 242.874889 -20.137632
-289.712461 134.326342 -2.108394
904.247757 120.538960 -22.055043
269.001815 241.743800 -7.522867
1.568938 232.897101 -5.223509
-225.541827 266.165389 -4.955938
588.470430 68.642624 -29.415677
-126.270726 13.804462 -29.649276
-270.960983 221.251923 -6.099828
-76.895167 134.294347 -3.955107
485.066611 215.589682 -5.100249
387.271455 288.930659 -8.677239
528.650941 157.551371 -6.685766
528.060370 364.642813 -12.271528
-340.080077 285.047278 -6.530829
934.227972 115.477324 -19.934584
667.223086 130.359676 -13.188654
-48.701747 54.968084 -4.423590
936.519604 240.744169 -26.031806
201.310189 222.315320 -9.909804
646.131838 332.184141 -17.367233
795.556623 223.794644 -16.535069
-159.995452 214.361906 -23.624868
693.620901 166.008163 -9.124997
-92.482038 341.192589 -37.530613
184.339144 213.751440 -6.195533
567.887693 204.464326 -13.081336
-103.646507 149.228475 -2.632619
288.820431 347.359173 -11.260457
606.265757 222.102722 -9.723450
-46.686838 368.011557 -19.803585
509.790492 196.303558 -8.847790
763.576576 95.026845 -27.536163
971.441133 143.467668 -16.500695
311.560622 159.209335 -32.953575
680.330104 56.445141 -26.522445
287.768160 149.493243 -5.904161
-16.432940 176.656346 -4.002542
-48.174570 155.790438 -37.001026
93.320253 181.267926 -32.554918
571.625346 209.858353 -17.755918
-341.855109 217.065322 -37.689760
-63.013260 54.507928 -35.243122
603.718206 217.650801 -9.249659
391.035582 370.819108 -18.690555
559.792180 197.630729 -8.772822
601.673799 340.331297 -10.809019
-13.562183 250.359903 -6.540749
735.427020 173.910442 -17.346261
-59.984919 335.517112 -37.313392
-491.662561 186.494674 -1.816810
524.179193 143.294347 -8.170829
-19.894492 308.118643 -5.616117
-478.548944 182.680852 -32.100141
615.441448 340.955901 -17.036236
451.757260 3.630435 -8.911632
-81.745040 134.574634 -34.070983
607.464279 340.804534 -10.352605
174.801945 218.705061 -6.760000
529.551815 188.582588 -11.040704
562.884494 219.246516 -28.551871
-112.328104 266.065503 -37.413808
434.733945 55.327403 -25.488749
629.230167 359.600630 -19.493718
575.420885 41.753513 -7.763432
804.979059 82.289345 -10.351360
529.126523 56.472294 -10.907765
-361.156137 183.746860 -34.946357
258.710367 330.016484 -21.659339
685.726604 327.029449 -18.123625
-55.922410 242.251480 -3.039030
107.539772 207.636587 -32.582829
559.929444 203.349604 -28.173044
756.470472 244.303877 -26.478197
569.028487 199.181056 -9.657048
552.294377 190.361977 -13.483984
-134.583715 115.258354 -6.753893
618.921617 181.265092 -13.704394
532.822137 317.949060 -21.668537
954.216373 124.182731 -17.086388
958.745490 240.637026 -22.796440
-75.017117 134.908488 -3.610708
267.111570 336.040625 -12.617034
693.923647 171.864824 -16.134437
874.150525 98.440102 -20.865287
957.481954 140.223878 -21.852098
-58.010959 233.831375 -35.328173
630.980447 339.296788 -16.956051
555.714239 182.034014 -14.558616
612.810833 69.562186 -29.231712
712.125796 168.783505 -17.251034
-115.736578 237.411180 -2.614112
-170.548946 224.340198 -2.510710
307.820419 267.097598 -10.322319
494.719662 289.177160 -23.431309
576.094414 38.896051 -6.820861
630.598223 69.586916 -29.663701
-223.249475 357.996610 -12.078325
17.156351 275.491333 -23.322580
-432.213499 176.964854 -26.638852
-391.457490 245.559728 -20.007028
718.222450 251.513771 -10.601346
-148.009936 176.561590 -24.181082
944.290863 153.739245 -17.929044
-380.127406 246.732772 -19.871162
683.361708 52.907981 -17.193625
955.876440 125.357232 -19.860165
-502.298615 192.220834 -10.048627
-46.575485 350.911025 -3.373144
518.953448 152.209846 -20.144151
524.021064 222.895701 -7.769969
578.614555 261.731631 -28.743254
315.866013 181.579752 -26.547795
516.567769 314.690612 -10.415712
-338.180497 325.644608 -5.380842
-29.552063 212.143302 -26.823350
-140.025777 27.744945 -35.912664
457.524155 70.536381 -4.479585
389.643016 370.534721 -11.043364
820.789520 85.409277 -17.753978
565.521031 205.089703 -9.370506
-54.148869 349.304242 -33.908782
298.006799 142.639506 -17.783742
561.479812 199.609331 -9.033364
669.131414 256.013473 -22.033638
520.816097 36.966253 -28.374954
-207.746611 82.789995 -4.782289
-331.950092 212.981273 -4.963745
623.941348 338.425462 -10.415863
761.693406 68.540434 -12.172903
538.279415 156.925427 -23.812596
663.954093 133.964374 -27.638204
499.860131 121.848810 -8.174225
636.638980 221.035382 -17.485457
251.245161 320.021289 -22.856471
-338.883800 211.072088 -3.441921
546.711966 186.715012 -20.154203
621.052933 260.545176 -27.406666
399.990473 50.588077 -9.381937
728.208594 169.768205 -9.245867
874.072347 235.523569 -11.629230
244.646059 312.760655 -10.498878
294.949065 56.966399 -23.309215
697.380677 253.307801 -10.674847
614.445345 137.998948 -29.227992
379.784215 53.163774 -9.885367
661.953163 42.794444 -11.379029
479.808210 292.068588 -5.841578
841.686116 176.496866 -13.937626
761.682648 246.578702 -12.329695
340.948686 369.941796 -25.307922
-334.824733 321.277898 -13.099507
290.352350 52.064605 -13.104826
-298.361443 181.027447 -32.252184
-125.151449 226.123206 -2.922274
-180.135028 224.200567 -5.590484
604.259176 220.871917 -12.456068
-328.551436 323.145961 -13.216933
672.519660 326.443777 -18.549576
-100.905490 317.730378 -21.897150
-30.262368 101.183068 -6.667932
577.586182 216.133397 -13.550899
539.718583 323.509078 -10.191142
315.629167 182.029312 -25.453104
431.954406 1.550824 -3.977068
172.001383 161.084390 -12.960328
-295.191442 338.586660 -19.091956
544.568068 40.639122 -27.802881
1029.312762 229.305865 -15.668280
293.010441 235.876401 -6.871808
573.972562 166.886558 -13.111841
548.658819 182.108158 -12.376133
-521.889596 274.690253 -37.131952
505.615437 142.666587 -19.523719
571.216076 188.526295 -9.746211
1029.259166 229.986926 -17.220021
544.752193 186.986820 -27.089774
361.517119 304.978052 -32.096465
514.426312 136.836573 -8.002865
363.484371 371.820004 -12.816931
36.144569 127.939873 -26.858113
565.372810 368.852527 -23.565421
541.399990 324.208023 -23.037362
16.931159 328.821398 -17.658855
-312.541718 176.421457 -19.912414
-307.123515 286.463676 -3.256072
-83.430839 322.643441 -24.685567
587.524719 163.090058 -24.145798
678.845451 130.385940 -12.304477
567.025639 204.080908 -27.743722
-77.970106 350.804901 -2.782431
895.976459 117.373799 -21.436398
981.589712 158.262571 -18.218981
474.193560 5.125697 -12.143890
732.509441 141.235208 -11.544711
521.292960 37.869518 -28.225336
1019.028128 229.036648 -19.614065
691.443030 253.803407 -26.432186
-44.741196 344.004390 -34.859624
692.313320 80.495171 -26.451650
291.025815 71.465970 -10.242947
851.226638 154.589515 -17.768976
-110.054677 61.355678 -4.882437
355.268614 293.756653 -12.587307
861.611604 94.058485 -12.614978
-348.079572 183.120423 -2.205464
582.613422 214.392822 -15.965124
777.164253 223.202603 -15.199390
655.393224 327.220614 -18.615228
630.222995 361.177277 -18.647207
506.513163 35.039537 -26.901001
834.069108 152.028429 -20.867736
602.717136 165.372017 -12.189358
562.754328 199.650661 -26.722986
543.804416 169.698612 -11.163306
-129.021474 20.153863 -34.307684
823.840340 239.800778 -12.255005
-220.987397 180.460688 -29.566581
-202.640824 76.142760 -34.225301
637.561680 168.934704 -20.879485
916.551370 236.370967 -11.655627
329.704585 24.124472 -18.549031
521.518766 184.759396 -25.773533
-64.923447 219.981517 -35.987328
296.932128 50.677163 -23.739778
480.834342 92.216357 -7.940284
617.326493 68.526779 -27.998777
-49.843301 261.472047 -3.341872
-45.204723 228.743865 -36.081532
736.421098 136.573616 -15.055255
222.680837 156.268433 -12.900636
-4.155920 340.599272 -7.003189
639.029140 169.496461 -20.491029
-138.105666 229.784491 -33.122294
344.792486 227.620178 -18.638353
280.769850 330.057777 -8.380664
-59.152403 58.395889 -34.706263
497.612053 200.687835 -8.144734
556.712901 153.830844 -26.428100
574.015971 162.653721 -9.009826
1029.088616 227.990706 -18.525192
-180.102701 214.914050 -29.181649
522.215508 196.268815 -27.655043
245.231694 313.963804 -13.205095
272.019255 170.448478 -6.323660
-119.871046 112.434345 -34.523583
560.941208 207.635319 -8.498319
693.989233 220.323344 -16.579698
398.960093 387.011579 -4.685910
328.079469 362.785937 -21.302520
624.576709 357.230366 -17.108130
-116.050983 169.309778 -4.914475
311.486760 143.426265 -24.681827
-287.150933 343.119753 -31.229055
-262.262143 300.539064 -36.984482
350.305812 242.091882 -6.565645
318.374513 188.351129 -17.670819
-42.872980 240.087324 -3.441560
997.672340 135.657045 -18.376417
609.990835 187.923450 -14.475470
662.392028 332.632446 -12.101731
788.799178 78.665209 -8.527824
-111.280396 166.082579 -36.836326
-498.752811 188.672767 -24.536268
674.174811 163.142581 -26.520309
-247.952938 266.641556 -4.093017
595.811083 340.650037 -21.637345
-405.726079 126.126629 -35.852510
984.973806 172.069472 -19.278970
-160.835702 173.359362 -12.746748
796.340686 175.087682 -16.322591
-294.689717 175.874711 -26.437646
545.210652 161.356228 -25.905274
670.419121 131.319972 -19.738813
668.836575 332.074259 -18.026405
605.080942 220.661968 -19.045198
588.715176 340.720552 -21.515363
672.481141 332.196370 -19.043572
528.202809 37.720731 -27.134861
473.038130 370.568887 -19.506767
510.999057 143.658273 -7.585273
-174.406056 117.120035 -34.288299
618.547024 47.862311 -33.312403
-73.299580 372.078674 -4.349974
655.853873 259.118651 -23.602258
-157.653131 273.455932 -31.892857
470.828688 278.315449 -5.312294
715.298691 167.355711 -9.382319
1012.907002 233.039294 -13.426230
-497.979957 187.760952 -3.055232
-148.613805 36.056428 -33.868731
518.119926 192.679909 -28.992985
851.664787 91.540600 -12.018502
-211.758985 125.069392 -31.859964
503.528463 148.505921 -20.311351
-373.592302 210.793593 -4.493268
-243.406134 216.685771 -12.672216
638.467663 64.205700 -17.703075
374.991575 267.830661 -4.327124
411.591621 245.039275 -3.410562
442.823159 234.644389 -2.009114
725.510378 85.879113 -22.834523
707.134951 171.707136 -19.611125
31.930223 315.243943 -19.994898
-169.848827 72.758760 -33.529229
379.492735 293.744030 -26.139626
701.623561 82.005489 -27.856177
-392.965402 211.327915 -36.941051
-366.244749 307.688605 -26.666145
937.824717 133.807106 -17.920832
831.594230 87.448992 -12.238960
-314.150294 213.970636 -4.170279
480.682154 89.117626 -32.234357
-56.218134 158.870766 -3.831469
673.806787 326.059147 -21.068831
582.726496 186.974638 -11.501702
589.628668 261.104036 -28.357782
712.408375 252.242594 -10.466711
509.213676 200.574455 -29.137026
217.275428 249.441025 -8.733980
-89.723601 173.810759 -35.526007
778.616389 222.082367 -15.737507
-50.848698 179.360306 -3.502200
306.376030 77.505365 -32.321937
761.255807 141.613740 -18.398402
525.452146 164.360896 -11.173877
-188.050230 220.141899 -2.960681
-241.098236 175.701953 -5.395480
202.236475 157.560229 -31.375247
799.159685 81.492207 -22.306023
-84.540984 234.819658 -37.672197
729.127856 65.134214 -25.670250
280.311219 209.063097 -31.306995
509.846998 260.124635 -34.786786
-19.905129 169.875774 -5.996587
1018.669492 231.066646 -21.427477
684.342004 254.514690 -10.064568
-248.864727 219.081378 -32.401562
660.935659 48.501287 -10.391290
236.437634 267.645925 -28.124685
-107.336662 54.940776 -34.128044
550.669642 162.122184 -22.357057
-124.449455 355.864724 -2.567211
-148.269628 273.481165 -19.494453
313.432958 136.197546 -30.556969
440.580185 73.299506 -4.807887
688.228496 166.485598 -9.419800
533.973209 39.438170 -27.338071
-409.221118 304.822032 -6.585392
453.416168 75.764799 -14.196434
3.288292 309.498878 -6.014862
-351.833136 217.784947 -26.515948
33.757157 119.921942 -8.605515
614.149731 368.486235 -19.843270
492.124050 295.426294 -8.371823
308.731514 341.456713 -31.827845
854.348781 236.064860 -10.998286
865.708473 98.229963 -13.111720
261.712858 323.476776 -8.501485
941.705793 242.681573 -24.399442
-202.253697 38.664233 -31.841030
241.257390 154.689283 -12.583665
-195.700607 211.494438 -27.765168
-43.943314 274.512407 -35.831293
-274.557394 131.115238 -26.294708
549.203489 91.731816 -6.115119
-183.928572 214.215548 -29.142611
-257.253791 219.289939 -5.628532
710.399347 166.595952 -11.927460
358.739004 306.683750 -32.731473
864.676402 157.036562 -20.651331
-159.686746 212.691322 -22.389298
378.608818 298.984175 -9.111085
253.916846 174.397826 -6.777022
541.717094 160.976848 -9.384756
608.085947 363.123348 -16.865384
951.356284 122.124480 -20.566461
646.863752 44.830961 -8.872702
140.379255 163.202973 -7.277547
661.293407 47.744935 -9.050177
-501.861575 193.492006 -17.378418
363.563994 379.821895 -24.636731
721.683907 247.651053 -12.133863
583.230265 187.542525 -19.416864
307.276786 367.587969 -24.226475
-220.348274 38.326341 -11.413965
367.153502 307.114039 -29.897599
-441.385918 212.441958 -37.785235
714.249477 172.336369 -20.514473
105.453754 202.381535 -10.774639
840.913925 105.533749 -15.492378
-39.391319 238.864611 -34.276820
500.628092 29.569175 -6.864825
-104.890677 386.164761 -34.901824
532.484000 160.241157 -24.078043
-310.019808 178.841741 -5.359271
570.332818 208.961216 -9.467943
-368.245457 82.873510 -26.554290
-88.589740 72.415216 -23.868102
-85.788448 380.760730 -35.997012
555.087672 331.286800 -22.904815
520.441285 34.658248 -7.708561
313.482203 174.355682 -6.086752
825.025226 101.845610 -10.144877
532.995328 188.488489 -10.947261
710.109612 134.695415 -19.009474
268.632194 204.178621 -7.908717
619.680843 68.968191 -28.086256
301.524954 82.521082 -10.283270
-333.519746 327.768425 -12.494408
807.196371 175.161007 -21.324504
73.730164 184.333184 -33.081445
650.398034 167.157408 -13.678559
-98.862326 325.179437 -11.567938
-198.375426 214.591184 -11.233665
797.558748 175.447539 -21.649704
510.031677 253.563055 -26.647841
-54.142467 56.018278 -35.819716
301.703216 312.163575 -6.986482
620.480380 181.781444 -20.342747
484.476241 103.417871 -7.115613
504.566751 135.816592 -23.594832
735.989664 142.436357 -28.538006
23.729604 240.424791 -5.936191
752.369309 67.768445 -11.964455
393.722675 253.067222 -4.399029
344.077324 77.382607 -27.970663
214.658532 155.254162 -9.580642
723.717154 220.424253 -14.987389
-83.212268 111.074579 -23.479048
-501.923011 193.918859 -17.858775
-88.811143 224.870601 -36.177235
580.489668 162.147400 -9.829605
729.883029 165.457875 -22.106221
657.368675 328.006517 -10.456164
-99.914702 166.234207 -35.479929
924.904652 109.955150 -19.294199
-120.221612 326.684841 -31.691806
914.227642 236.599849 -11.608263
954.798519 124.793124 -21.149929
-216.212457 182.646494 -22.063402
640.187045 131.100449 -28.868302
598.600061 118.300816 -7.505556
532.419906 42.814565 -6.609290
682.108360 329.163465 -18.153260
-44.635046 239.696241 -36.960592
-47.944787 257.692152 -3.084241
657.100859 45.960295 -10.478565
625.341351 72.159430 -28.129828
232.883155 198.036749 -26.402703
-69.213522 243.577992 -36.832166
550.837854 210.366216 -28.599869
-35.059454 183.034249 -6.309968
659.337807 170.222586 -15.898390
811.817284 99.301657 -10.104640
383.005630 67.007157 -2.243460
-257.521683 52.909640 -31.841267
470.318243 277.952412 -22.260710
497.909905 185.072501 -12.222021
-52.393586 220.397784 -35.420885
-293.521977 217.917815 -5.927762
556.835231 37.086061 -10.561898
305.319355 83.662533 -5.967253
705.334191 167.510082 -9.782056
-29.048073 252.106004 -35.026411
666.604779 129.426982 -10.505868
-90.901240 341.114610 -37.663774
328.303273 298.944547 -6.932710
-100.564696 376.648073 -35.840190
13.914627 82.642364 -8.473131
400.884835 273.474580 -5.355285
594.824796 37.946682 -8.284867
-44.901931 180.498558 -3.748800
354.333609 312.223316 -32.546324
562.348783 203.535983 -9.270299
-272.107473 213.347807 -19.387590
-101.839298 370.815638 -37.313157
575.786669 162.472656 -8.850304
-100.305203 164.967687 -3.205987
596.712807 329.160077 -22.937329
256.081327 320.060981 -30.395422
931.673035 237.539105 -26.359882
-191.692197 214.296213 -29.374303
264.162646 326.127261 -30.200601
-148.127886 179.207087 -29.258927
494.940428 121.676896 -6.911586
519.157176 367.956163 -24.628856
530.755919 368.122339 -21.950852
199.979260 217.633669 -27.561466
47.647318 142.730021 -29.679960
18.956035 101.776603 -12.964197
746.720735 70.070696 -12.328779
-151.373461 113.593658 -9.693908
547.950716 42.931984 -6.059433
-99.226896 322.578759 -10.208161
604.587467 216.925041 -17.364491
</DataArray>
</Points>
<PointData>
<DataArray NumberOfComponents='1' type='Int32' Name='ParticleType' format='ascii'>
1
1
1
1
1
1
1
1
1
1
1
1
1
1
1
1
1
1
1
1
1
1
1
1
1
1
1
1
1
1
1
1
1
1
1
1
1
1
1
1
1
1
1
1
1
1
1
1
1
1
1
1
1
1
1
1
1
1
1
1
1
1
1
1
1
1
1
1
1
1
1
1
1
1
1
1
1
1
1
1
1
1
1
1
1
1
1
1
1
1
1
1
1
1
1
1
1
1
1
1
1
1
1
1
1
1
1
1
1
1
1
1
1
1
1
1
1
1
1
1
1
1
1
1
1
1
1
1
1
1
1
1
1
1
1
1
1
1
1
1
1
1
1
1
1
1
1
1
1
1
1
1
1
1
1
1
1
1
1
1
1
1
1
1
1
1
1
1
1
1
1
1
1
1
1
1
1
1
1
1
1
1
1
1
1
1
1
1
1
1
1
1
1
1
1
1
1
1
1
1
1
1
1
1
1
1
1
1
1
1
1
1
1
1
1
1
1
1
1
1
1
1
1
1
1
1
1
1
1
1
1
1
1
1
1
1
1
1
1
1
1
1
1
1
1
1
1
1
1
1
1
1
1
1
1
1
1
1
1
1
1
1
1
1
1
1
1
1
1
1
1
1
1
1
1
1
1
1
1
1
1
1
1
1
1
1
1
1
1
1
1
1
1
1
1
1
1
1
1
1
1
1
1
1
1
1
1
1
1
1
1
1
1
1
1
1
1
1
1
1
1
1
1
1
1
1
1
1
1
1
1
1
1
1
1
1
1
1
1
1
1
1
1
1
1
1
1
1
1
1
1
1
1
1
1
1
1
1
1
1
1
1
1
1
1
1
1
1
1
1
1
1
1
1
1
1
1
1
1
1
1
1
1
1
1
1
1
1
1
1
1
1
1
1
1
1
1
1
1
1
1
1
1
1
1
1
1
1
1
1
1
1
1
1
1
1
1
1
1
1
1
1
1
1
1
1
1
1
1
1
1
1
1
1
1
1
1
1
1
1
1
1
1
1
1
1
1
1
1
1
1
1
1
1
1
1
1
1
1
1
1
1
1
1
1
1
1
1
1
1
1
1
1
1
1
1
1
1
1
1
1
1
1
1
1
1
1
1
1
1
1
1
1
1
1
1
1
1
1
1
</DataArray>
<DataArray NumberOfComponents='1' type='Int32' Name='ParticleID' format='ascii'>
0
1
2
3
4
5
6
7
8
9
10
11
12
13
14
15
16
17
18
19
20
21
22
23
24
25
26
27
28
29
30
31
32
33
34
35
36
37
38
39
40
41
42
43
44
45
46
47
48
49
50
51
52
53
54
55
56
57
58
59
60
61
62
63
64
65
66
67
68
69
70
71
72
73
74
75
76
77
78
79
80
81
82
83
84
85
86
87
88
89
90
91
92
93
94
95
96
97
98
99
100
101
102
103
104
105
106
107
108
109
110
111
112
113
114
115
116
117
118
119
120
121
122
123
124
125
126
127
128
129
130
131
132
133
134
135
136
137
138
139
140
141
142
143
144
145
146
147
148
149
150
151
152
153
154
155
156
157
158
159
160
161
162
163
164
165
166
167
168
169
170
171
172
173
174
175
176
177
178
179
180
181
182
183
184
185
186
187
188
189
190
191
192
193
194
195
196
197
198
199
200
201
202
203
204
205
206
207
208
209
210
211
212
213
214
215
216
217
218
219
220
221
222
223
224
225
226
227
228
229
230
231
232
233
234
235
236
237
238
239
240
241
242
243
244
245
246
247
248
249
250
251
252
253
254
255
256
257
258
259
260
261
262
263
264
265
266
267
268
269
270
271
272
273
274
275
276
277
278
279
280
281
282
283
284
285
286
287
288
289
290
291
292
293
294
295
296
297
298
299
300
301
302
303
304
305
306
307
308
309
310
311
312
313
314
315
316
317
318
319
320
321
322
323
324
325
326
327
328
329
330
331
332
333
334
335
336
337
338
339
340
341
342
343
344
345
346
347
348
349
350
351
352
353
354
355
356
357
358
359
360
361
362
363
364
365
366
367
368
369
370
371
372
373
374
375
376
377
378
379
380
381
382
383
384
385
386
387
388
389
390
391
392
393
394
395
396
397
398
399
400
401
402
403
404
405
406
407
408
409
410
411
412
413
414
415
416
417
418
419
420
421
422
423
424
425
426
427
428
429
430
431
432
433
434
435
436
437
438
439
440
441
442
443
444
445
446
447
448
449
450
451
452
453
454
455
456
457
458
459
460
461
462
463
464
465
466
467
468
469
470
471
472
473
474
475
476
477
478
479
480
481
482
483
484
485
486
487
488
489
490
491
492
493
494
495
496
497
498
499
</DataArray>
<DataArray NumberOfComponents='1' type='Int8' Name='IsActive' format='ascii'>
1
1
1
1
1
1
1
1
1
1
1
1
1
1
1
1
1
1
1
1
1
1
1
1
1
1
1
1
1
1
1
1
1
1
1
1
1
1
1
1
1
1
1
1
1
1
1
1
1
1
1
1
1
1
1
1
1
1
1
1
1
1
1
1
1
1
1
1
1
1
1
1
1
1
1
1
1
1
1
1
1
1
1
1
1
1
1
1
1
1
1
1
1
1
1
1
1
1
1
1
1
1
1
1
1
1
1
1
1
1
1
1
1
1
1
1
1
1
1
1
1
1
1
1
1
1
1
1
1
1
1
1
1
1
1
1
1
1
1
1
1
1
1
1
1
1
1
1
1
1
1
1
1
1
1
1
1
1
1
1
1
1
1
1
1
1
1
1
1
1
1
1
0
1
1
1
1
1
1
0
1
1
1
1
1
1
1
1
1
1
1
1
1
1
1
1
1
1
1
1
1
1
1
1
1
1
1
1
1
1
1
1
1
1
1
1
1
1
1
1
1
1
1
1
1
1
1
1
1
1
1
1
1
1
1
1
1
1
1
1
1
1
1
1
0
1
1
1
1
1
1
1
1
1
1
1
1
1
1
1
1
1
1
1
1
1
1
1
1
1
1
1
1
1
1
1
1
1
1
1
1
1
1
1
1
1
1
1
1
1
1
1
1
1
1
1
1
1
1
1
1
1
1
0
1
1
1
1
1
1
1
1
1
1
1
1
1
1
1
1
1
1
1
1
1
1
1
1
1
1
1
1
1
1
1
1
1
1
1
1
1
1
1
1
1
1
1
1
1
1
1
1
1
1
1
1
1
1
1
1
1
1
1
1
1
1
1
1
1
1
1
1
1
1
1
1
1
1
1
1
1
1
1
1
1
1
1
1
1
1
1
1
1
1
1
1
1
1
1
1
1
1
1
1
1
1
1
1
1
1
1
1
1
1
1
1
1
1
1
1
1
1
1
1
1
1
1
1
1
1
1
1
1
1
1
1
1
1
1
1
1
1
1
1
1
1
1
1
1
1
1
1
1
1
1
1
1
1
1
1
1
1
1
1
1
1
1
1
1
1
1
1
1
1
0
1
1
1
1
1
1
1
1
1
1
1
1
1
1
1
1
1
1
1
1
1
1
1
1
1
</DataArray>
<DataArray NumberOfComponents='1' type='Int32' Name='ParticleTetID' format='ascii'>
26659
71413
8030
17015
70605
6806
77049
31719
31178
6446
59594
7754
9487
1964
52040
82961
75891
69557
6032
57842
59080
17785
78868
88475
67652
63042
7517
59259
19655
37802
69790
5670
29578
68043
745
64821
64380
69937
45176
61570
95619
2810
17441
98652
59714
12976
5201
67413
40688
56739
60339
6211
60307
20248
19262
74055
24139
10256
77029
53771
1977
79943
90197
66461
63985
449
87459
67021
59279
73354
56722
34
30683
63727
2090
42655
67945
72910
74957
57102
11397
59912
56493
58290
59572
2574
29596
59263
71775
67527
3041
69038
76778
79664
58688
19046
9468
25257
52012
59277
63859
11272
24473
3808
6111
66911
10217
66212
9241
57319
58292
2273
2900
74403
56613
66866
43696
66371
9829
1614
3077
52416
40685
78396
72435
2319
38256
56741
61714
72840
8588
11108
69034
70312
75196
61194
51575
62684
30395
11107
58095
70428
176502
60305
57478
30389
34156
59313
56659
155532
71571
53660
68910
72904
32464
9832
28984
7358
920
7526
67415
9814
62268
12573
705
75048
78323
43697
86532
42178
7964
68790
-58958
27417
73768
78790
10690
65743
72399
-58958
64868
43105
78249
42304
45840
57465
78327
40344
7243
6680
19918
68519
66731
69798
4754
78365
57356
52403
64121
72840
60235
58205
17261
62363
28462
69920
24193
32134
57190
13160
66752
63006
67362
67021
67692
62847
71104
56748
71824
3077
58882
7376
9935
58239
71266
36439
66466
24191
29367
53159
59990
22970
17279
64122
33394
19605
58239
2083
35106
29651
17943
52221
58186
73769
-58958
7538
66470
30388
35227
14127
57911
62900
80454
32211
78776
1801
45137
9769
8693
26155
45080
2828
75481
59910
56596
73299
1817
19217
56512
6374
71055
2213
56779
9382
56994
7354
58222
66733
56599
67418
60993
58525
72840
54457
65739
6873
58117
8138
73883
3019
53930
58683
70962
19208
18825
66469
57190
6799
65745
5276
9544
60830
47485
-126563
83921
64017
58687
26341
11463
43516
64416
15443
7984
68390
68171
7454
51871
23996
64235
77673
66434
63797
64830
38525
20771
63006
18560
25590
62054
60971
9506
9271
38713
74225
16559
59536
33241
64725
8623
58959
59297
9553
69573
34050
24207
58185
11000
1880
51008
87483
59261
71724
3583
53052
29071
12880
28065
67129
52007
29498
63905
57083
29433
78869
9624
95066
7500
22335
8866
76411
7538
7544
58684
37237
59357
7517
24645
45237
58215
67130
58293
58899
48153
69573
2276
41609
66911
60434
33274
7673
40766
3454
58689
34457
57410
2843
67593
14415
75197
7237
59711
7588
1055
645
76025
72831
25543
56885
59152
64195
32889
60512
47830
8015
56997
97350
57786
10157
7493
65349
66358
17801
32331
61227
52923
74296
69440
25363
67270
127228
34068
30713
65186
23014
2276
24262
72238
60309
67359
899
57841
4027
71266
58293
7373
60060
76251
63919
63727
2843
22968
72975
59990
24688
16360
57630
16327
57788
56883
143892
7790
53937
51665
21237
7436
78754
39637
58685
14091
59081
19655
30317
11735
46011
-127033
59873
15698
37237
72437
7423
11735
73769
884
58780
30397
75574
9517
29444
10220
51573
71939
71075
90248
37976
36580
67270
6827
68779
17483
67418
</DataArray>
<DataArray NumberOfComponents='3' type='Float32' Name='vels' format='ascii'>
1.141440 -0.032329 -0.000389
3.092089 0.186377 0.000861
0.024377 0.007126 -0.000145
1.003890 0.075445 0.001984
4.609214 -0.580694 0.000346
0.115561 -0.019178 -0.001421
4.373643 1.258484 0.003573
2.194265 1.043300 0.001940
1.292065 0.050741 -0.000340
0.050930 0.008257 -0.001149
1.791607 -0.060947 0.001288
1.001565 -0.226751 0.004920
0.354382 0.003426 0.001060
0.117748 0.015998 -0.000503
0.009491 -0.006566 0.000105
0.079088 -0.081484 0.027100
0.510769 0.327066 0.000115
1.519737 -0.192325 -0.004149
0.009877 0.001622 -0.001680
3.990347 1.482428 0.003542
0.095585 0.018290 0.000473
0.700491 0.395838 0.000617
3.510267 0.266061 0.005126
1.634236 0.457979 0.370187
2.259039 -0.402764 -0.004907
2.562030 -0.074419 -0.002853
0.344583 0.000710 -0.000769
1.927803 0.105107 -0.001659
0.515266 -0.044905 -0.000140
0.204031 0.016021 0.000832
-0.002492 0.007261 0.003704
0.599530 0.026079 0.000965
0.839964 0.475967 0.000094
1.070222 0.009928 -0.002052
2.004282 -0.475785 -0.000044
0.720772 -0.240971 -0.000093
2.441765 0.455498 -0.001573
4.818557 0.953292 0.001912
-0.000353 -0.007975 -0.004381
2.989261 0.648909 -0.003105
1.936511 -3.727122 -0.168549
0.205949 0.125397 0.000144
0.689159 0.370535 0.000424
3.073355 -1.467718 0.061130
-0.001029 -0.001107 0.000621
0.827550 0.016217 -0.001167
0.099214 0.049641 -0.000194
0.632376 0.002632 -0.001210
0.005716 0.004925 0.005103
0.397980 0.036374 0.012973
1.761537 -0.002624 -0.000451
0.592949 -0.060870 -0.000667
2.930114 0.157994 0.000259
0.571983 -0.299444 -0.000038
-0.000739 0.000330 -0.000260
0.718596 0.621267 0.000607
0.599919 -0.378492 0.000764
0.087052 -0.000249 0.003181
2.407842 -0.235377 -0.000561
1.693374 0.078141 -0.362298
0.365166 0.022786 0.000456
1.757521 -0.036439 0.002166
3.938030 0.106271 0.091978
0.681447 -0.013399 0.002322
0.594071 0.356328 -0.005778
0.870899 0.036860 0.000094
0.512638 0.278412 -1.204278
2.418812 -0.394689 0.001603
1.639672 -0.005399 0.001220
3.375540 0.800165 -0.002217
2.266814 0.590817 0.000790
0.002876 -0.001596 0.000024
0.798401 1.089974 -0.000239
2.439020 -0.481211 -0.001139
0.440189 -0.028872 0.000444
6.143341 -4.613303 0.005079
0.448724 0.157608 -0.004492
2.781302 -0.297702 -0.000316
0.027738 -0.032238 0.015915
0.809546 -0.067731 0.005143
0.566672 -0.081251 -0.001080
0.400987 -0.000435 0.000408
1.183076 0.529364 0.000971
3.962277 1.188936 -0.003072
3.846852 -0.051420 0.001539
0.668818 0.115283 -0.000476
0.792309 0.606230 0.000699
2.763347 0.160994 -0.001847
4.652169 1.131688 -0.002993
4.354271 0.912046 -0.002568
0.394605 -0.031059 0.001173
2.218109 -0.221707 -0.003723
1.251028 -0.074293 -0.000281
1.315071 0.042928 -0.002795
2.844894 0.172935 -0.004912
0.549889 0.003605 -0.001601
0.480775 0.012608 0.000241
1.760994 0.748655 -0.003239
1.362794 1.120300 -0.012383
1.482813 0.007455 0.000551
1.600473 0.208125 -0.001679
0.595394 0.171184 -0.000596
2.687985 -0.592264 -0.001231
0.017405 -0.000070 -0.000923
0.010031 0.001609 0.000705
2.037064 -0.187114 0.002463
1.590647 -0.017808 0.000358
3.887631 0.208722 -0.003139
0.111094 0.017841 -0.000350
3.002805 0.702253 -0.001756
3.806917 1.436511 0.011669
0.001462 -0.000258 0.001084
0.281961 -0.170514 0.000191
0.797938 0.708261 0.000772
0.957051 -0.014592 0.001108
1.487388 0.023076 0.000395
-0.010767 -0.035736 -0.001672
0.802103 0.384269 0.002318
0.823915 0.230698 -0.003483
1.840928 0.403428 0.000220
0.469822 -0.110952 -0.000697
1.742246 0.762935 -0.114417
0.018731 0.016032 0.008907
3.979220 0.938166 0.002419
0.184738 0.136362 0.021997
0.131195 -0.055505 -0.000177
2.895142 -11.500827 -0.002548
0.327924 0.026419 0.019473
2.337788 -0.154569 -0.000373
2.394564 0.431263 -0.000646
0.061072 -0.011495 0.000080
0.065850 -0.000037 -0.002330
1.943049 -0.190611 -0.002876
2.928798 0.711085 -0.001071
1.128605 0.557834 -0.000297
1.928144 0.232731 0.001157
0.376141 0.838495 -0.002568
0.021378 0.000010 0.000262
0.665522 1.205424 -0.000631
1.353840 0.029005 -0.001256
1.014085 -0.061333 -0.001396
2.021357 -0.090638 0.000188
19.610684 -4.168208 -0.030446
2.356433 0.120072 -0.000312
3.864990 -0.341550 0.006025
0.595818 1.015180 -0.000798
-0.233003 -2.158203 -0.043942
2.192358 -0.203157 0.001040
1.286635 0.081785 -0.000369
0.309246 -0.221343 -0.018977
2.330034 0.533762 0.000225
0.629259 0.640623 -0.019746
2.250676 0.049203 0.003491
2.847845 -0.272141 0.000289
1.445416 0.398915 0.009747
1.100372 0.314260 -0.001919
0.274393 -0.612926 -0.001556
0.047052 -0.000099 0.002330
0.673020 0.019651 -0.000434
0.019878 0.000031 -0.000367
0.006510 -0.000004 0.000039
0.096450 0.029781 0.000301
2.112939 -0.389800 -0.000467
0.805103 -0.005521 -0.001489
0.658848 0.796250 -0.002389
0.039065 0.011942 -0.000793
0.979822 0.396645 0.000387
0.001153 0.003630 -0.002191
7.603553 0.558891 -1.493299
7.601741 0.009274 0.008343
0.017431 0.005105 0.000070
2.217511 0.234880 -0.001394
4.195891 -0.823559 0.007726
1.284337 0.505072 -0.001170
1.527995 0.075752 -0.000179
0.932222 -0.031384 -0.001183
-0.000663 0.000422 0.000123
0.444489 0.964799 -0.000242
0.641085 -0.263469 0.014398
3.998002 -0.839101 0.052347
0.818451 -0.046414 -0.003645
0.149030 -0.193416 -0.013462
0.554285 0.730936 -0.000341
1.481963 0.892753 0.043801
0.927849 1.636521 -0.003175
1.944649 0.150471 -0.001411
1.270291 0.567864 -0.000451
1.931398 -1.016631 0.000380
0.081680 -0.000227 -0.001272
0.022871 0.003607 -0.000694
1.645119 -0.217050 -0.007350
2.137329 0.064008 -0.000686
1.841684 0.238046 0.004977
0.052828 0.061021 -0.022506
0.474710 -0.095141 -0.000264
4.194306 0.980276 -0.003700
4.981458 0.737885 0.001995
0.009231 -0.000036 -0.001797
2.242501 0.283483 0.004487
2.410384 0.417144 -0.000447
3.681254 -0.887186 0.088913
2.450011 -0.233886 0.000042
0.521898 -0.360857 -0.000570
0.033655 0.005499 0.000226
-0.708080 -1.773907 -0.132960
3.077000 0.399846 -0.004892
0.807395 -0.039922 -0.002145
1.269982 -0.423897 0.004338
2.870638 0.603148 -0.016702
0.039659 0.000113 -0.003070
0.054708 0.000657 0.000690
2.221381 -0.055385 0.000238
1.896265 -0.330332 -0.001594
2.297506 -0.435122 0.001198
2.815383 0.514303 0.002916
3.014405 0.392961 -0.001628
1.828499 0.056898 -0.000447