<VTKFile type='UnstructuredGrid' version='1.0' byte_order='LittleEndian' header_type='UInt64'>
<UnstructuredGrid>
<Piece NumberOfCells='500' NumberOfPoints='500'>
<Points>
<DataArray NumberOfComponents='3' type='Float32' Name='Position' format='ascii'>
505.859330 192.313737 -4.686511
1029.059357 188.209033 -16.808274
-234.348351 352.339427 -6.056674
549.138131 259.724491 -6.408112
1029.278797 232.304881 -20.074967
-193.397303 119.990920 -2.127665
1029.253611 152.748402 -21.930599
731.483749 247.156649 -5.758049
500.134426 200.289053 -4.416599
-116.168355 281.324332 -4.992844
1029.136333 154.676584 -29.201451
32.346994 88.815948 -30.002089
-177.098213 222.908903 -6.011720
513.782250 74.578316 -4.467260
571.412912 212.747641 -4.314317
1029.359902 252.147987 -15.006536
815.742641 176.002897 -6.590999
1029.087137 262.783777 -11.868301
-190.574160 311.455309 -6.808768
1029.193912 138.980634 -19.474711
800.438477 150.005800 -13.106496
294.821057 130.759940 -4.049594
1029.076102 228.539705 -26.569211
460.843125 396.390450 -3.917510
1029.103216 249.678682 -17.080837
1028.990499 208.533237 -16.447437
650.738995 166.255543 -17.557821
1029.136178 186.426719 -8.694585
8.108472 292.531769 -37.575623
605.539657 368.089197 -7.570757
594.673304 215.308308 -12.261136
289.713028 183.483802 -2.650431
995.376047 268.808038 -8.658747
946.036143 218.663944 -9.891482
422.306524 386.274159 -3.543799
739.244800 187.664711 -7.838228
1029.074164 155.183680 -27.112406
1029.321351 153.281068 -16.377951
467.318471 93.330486 -32.535156
1028.982668 142.206514 -26.628187
723.752902 59.431892 -6.246700
542.447056 91.092596 -2.873756
21.836009 194.240286 -37.018449
995.248251 136.534230 -29.799932
663.006466 214.534630 -17.574313
-272.021928 218.272799 -37.624399
0.185203 120.374979 -35.169178
775.611736 215.713631 -9.019855
1029.339088 256.934836 -22.392138
623.710838 188.914319 -6.953471
1029.096555 251.048780 -9.627166
591.137777 256.212984 -5.682829
1029.044092 190.888146 -17.070591
80.312769 265.891266 -37.252223
-491.815297 186.639933 -1.968708
1029.140656 185.673421 -7.749712
328.170005 305.450343 -5.477422
-279.023643 182.187287 -31.524298
1029.281029 251.617953 -16.541149
604.767238 6.447236 -11.669591
9.363324 180.143297 -33.997002
1029.144067 251.298274 -9.433218
524.359269 387.860790 -8.453331
771.883933 184.351711 -10.673140
1029.099325 207.296483 -29.207397
1.854655 260.352731 -37.427831
499.992871 101.781598 -36.601720
1029.003818 260.121252 -19.353480
1029.219105 141.565174 -7.227381
1029.030335 140.847806 -10.327024
1029.210581 151.177371 -10.058554
-322.912951 182.768990 -34.915503
422.743582 386.163063 -3.664093
1029.370072 249.889205 -17.917543
361.605984 247.091902 -2.407827
568.763577 204.161521 -30.021581
770.095734 215.833244 -28.814178
1029.088630 226.583231 -26.791639
609.030748 191.431002 -8.199810
622.835356 181.820808 -13.331042
522.175946 54.863181 -6.225517
1029.075219 199.084609 -13.594524
1029.306689 250.607125 -21.757990
1029.275264 140.263570 -17.033113
1029.110714 228.986199 -22.802082
496.473034 66.815743 -4.283259
976.873378 275.963938 -10.591887
1029.150350 191.275146 -16.086105
1029.304192 140.303527 -20.675616
1029.296586 152.742705 -21.728450
74.265127 227.050625 -35.265725
1029.317875 251.504023 -16.457303
1029.142010 196.584875 -14.344229
1029.292726 155.217574 -29.018318
1029.213633 188.409014 -16.858498
303.138704 217.123127 -2.618733
48.643633 227.856114 -2.482453
641.487022 259.991481 -6.214463
1029.337316 249.376128 -23.538960
1029.006290 140.497051 -6.606818
1029.101994 154.322595 -29.456101
-73.390886 385.723269 -12.148958
1029.023898 231.951962 -20.916878
-432.596996 176.891243 -26.658227
-388.951147 246.007136 -20.005270
1029.244989 230.300666 -9.687840
685.753792 171.632815 -20.566195
1029.318341 165.992030 -17.959244
-305.576141 258.475283 -19.850392
1028.977543 140.299234 -17.001177
1029.189046 140.141349 -19.420439
-501.847726 192.371826 -9.662662
238.925310 262.545973 -3.288837
1029.088515 191.145182 -20.070877
1029.119364 214.611647 -7.296110
1029.162892 231.219450 -28.952026
363.144235 74.311391 -21.528987
1029.069190 250.884586 -9.429735
-220.230854 358.929739 -5.561286
922.339408 178.975415 -22.361408
8.030028 86.516010 -35.887569
708.035544 162.182857 -4.929097
1029.203531 259.133438 -14.979347
1029.386622 140.349597 -17.517165
695.783807 214.683097 -8.841330
122.172789 222.200073 -33.775086
377.639320 41.467018 -2.348081
602.604444 213.577260 -7.167633
1029.257480 229.715106 -21.899225
1029.221177 141.549552 -28.168380
-23.338519 124.990668 -4.917124
-235.036497 214.085526 -5.343500
1029.184340 250.622315 -9.354484
1029.115912 138.104862 -11.754595
1029.020587 188.147850 -23.823336
1029.259073 166.069571 -28.080659
1029.121508 190.466885 -8.136797
889.518926 217.716098 -17.808309
422.237684 386.356569 -3.913509
-237.990493 212.575841 -3.842452
1028.976683 198.275371 -20.143932
1029.216848 231.067388 -27.441933
519.840989 123.296471 -36.506005
1029.134359 189.002731 -8.993922
1028.982673 228.031097 -11.093356
599.979682 367.208593 -6.538033
566.295388 8.145873 -20.026991
1029.064718 230.128527 -9.890916
1029.261154 171.158954 -29.184869
381.472231 52.266270 -10.001146
1029.152980 136.636137 -10.985803
672.868592 337.292071 -6.210001
1029.072949 189.720784 -13.672791
1029.126679 229.823613 -11.368067
1029.116635 266.379400 -22.171789
204.624495 219.818952 -10.081904
1029.194718 140.926378 -10.790143
-159.259152 180.017222 -31.631576
275.519520 207.547220 -2.921548
198.590276 191.212186 -5.544329
708.444771 220.346987 -12.359854
91.621972 292.433541 -13.313742
1029.165082 249.277036 -18.436584
909.565128 236.320193 -17.098357
540.017968 81.205487 -2.676158
890.763403 214.955697 -13.814535
1029.162656 250.509853 -9.214404
313.753577 170.955655 -26.586607
510.131823 3.961917 -13.176517
551.610064 10.270360 -12.402814
-116.610289 387.246743 -18.905771
1028.993105 141.600352 -27.791848
1029.312762 229.305865 -15.668280
605.942685 225.952251 -4.442248
1029.207264 189.143456 -11.935037
793.797943 180.490279 -12.388741
-521.954220 274.736350 -37.136270
1029.232534 189.628657 -19.390733
758.206754 187.659222 -9.563681
1029.259166 229.986926 -17.220021
1029.103068 198.247599 -27.320136
1028.989402 252.799752 -25.582654
1029.160703 187.417509 -7.500706
1029.086343 261.955222 -10.171866
90.122306 179.385963 -26.228261
1029.196213 265.861447 -23.563606
1029.060599 250.741090 -23.158830
572.209593 367.023917 -11.199997
-239.582452 175.740714 -19.958510
-214.200700 302.528259 -3.457213
1024.443810 231.675590 -21.205646
1029.139103 188.001014 -24.091368
1029.296602 165.116357 -11.684768
666.612672 214.317013 -28.485047
218.727131 220.585340 -2.554733
1029.246652 152.097065 -21.274371
1029.238727 166.185289 -18.220476
593.200432 6.242085 -12.390711
1029.317852 166.310171 -11.196974
1029.074538 141.753036 -28.112455
1028.978325 226.681346 -19.098767
1029.070636 229.001683 -26.946571
139.211026 212.108492 -34.906529
1029.076318 154.088305 -26.648681
627.061059 11.114069 -7.619587
1029.134247 165.425647 -17.916420
284.703308 165.510233 -4.667892
1028.993193 251.027087 -9.360745
1029.191202 138.906774 -12.100933
-209.257347 180.361361 -2.587829
742.005986 213.447858 -15.893145
1028.987540 207.207378 -15.083185
1029.256612 249.121303 -18.632310
1029.083419 261.565138 -18.628778
1029.186294 141.644426 -26.875536
1029.125480 163.915666 -20.865933
1029.067550 187.903334 -11.437351
656.384017 214.400277 -28.218727
1028.977323 191.701105 -10.560304
-20.618767 33.787802 -34.482858
1029.130325 227.908705 -11.363294
424.701382 67.244884 -7.344224
-18.461394 122.508687 -34.169115
1028.994581 191.539402 -20.807746
1029.089074 228.582486 -11.134421
1029.032689 139.337093 -11.491075
739.673272 180.493932 -26.287786
324.428195 106.618598 -36.791928
568.396545 8.110142 -20.084123
1029.118109 188.779216 -7.828990
1029.058995 154.448558 -27.720059
389.926461 257.077751 -0.242980
374.217817 250.214936 -33.820725
1029.130825 162.909080 -15.085360
1029.287445 139.578995 -9.591735
249.991853 334.590908 -6.822213
1029.138655 191.579951 -20.417899
603.806545 220.565643 -25.760512
621.528806 180.234900 -19.809481
951.477235 280.856957 -9.605043
290.040638 143.649858 -34.849018
752.256389 186.371524 -7.363827
1029.114565 185.116480 -26.917102
1029.027159 188.449629 -8.741109
1029.088616 227.990706 -18.525192
537.456965 155.980333 -23.843121
634.923210 190.786612 -29.981124
788.679420 325.140411 -8.135710
731.487363 62.234447 -6.631209
-0.216467 157.389720 -34.182472
909.159130 216.301737 -8.164029
1028.993735 205.652109 -16.980837
1029.000713 266.680231 -14.841078
1029.019230 264.554280 -17.341043
1029.020443 260.195748 -17.082613
328.726319 92.112984 -4.434541
662.121355 169.413525 -23.967707
-131.659743 386.627077 -30.664693
-45.477859 297.828948 -36.847228
580.014066 184.997008 -5.925591
318.502283 188.797296 -18.191035
469.166197 227.639830 -3.413778
1028.992364 140.724015 -18.226469
877.890877 191.511613 -14.512969
1029.288175 250.532170 -11.240318
1028.982169 140.578835 -8.523235
-0.002298 205.776277 -36.878449
-498.976539 188.834702 -24.921254
1028.991480 184.793799 -26.995024
-152.766973 281.031417 -4.196402
1029.263509 251.378450 -21.648380
-405.727988 126.069954 -35.840995
1029.055936 181.494904 -18.997324
311.063085 157.505466 -11.163736
1029.168282 189.604127 -16.148881
-154.514503 174.596966 -26.120466
1029.060040 188.469406 -26.483053
960.558468 156.537301 -19.796939
1029.062033 251.332961 -17.754174
747.612870 219.905128 -19.188374
1029.058731 251.612451 -21.507725
1029.209896 251.530546 -18.765869
1029.226357 141.141672 -26.962504
1029.035831 258.818714 -21.723534
1029.137454 191.840832 -7.148699
-46.723463 120.269640 -33.747035
1028.992617 143.275617 -33.765066
162.916616 214.406047 -3.476538
1029.052570 231.238678 -23.593649
562.159435 258.947344 -26.307567
670.498596 330.941700 -6.239470
1029.019086 186.784368 -8.920433
1029.062089 229.606706 -11.842059
-492.780030 185.875442 -3.565308
7.028900 98.832850 -33.924579
741.798651 186.320615 -29.616091
1029.055737 139.105929 -11.640209
-60.075951 113.857853 -31.283472
1029.084872 192.212440 -20.238293
-270.232446 212.087973 -5.008566
-128.359622 217.493900 -12.683979
1028.996143 151.715862 -17.273462
1028.994285 231.174448 -6.028807
411.591621 245.039275 -3.410562
568.561551 205.728258 -5.177740
1029.256785 153.702561 -22.613375
1029.274629 189.295571 -19.419725
700.185367 352.844453 -15.505132
-0.328936 141.205357 -33.468414
1029.096721 252.600993 -23.946544
1029.235200 153.879772 -27.568629
-295.195893 212.309826 -36.463575
255.714412 314.900027 -26.776700
1029.273908 151.732683 -17.452964
1029.014351 139.407205 -11.818104
-199.198151 215.618304 -4.410965
1028.984348 184.826144 -32.941579
506.174405 72.592371 -3.797180
1028.980649 249.835231 -21.175183
714.879266 187.482326 -11.235400
1029.188393 230.634547 -28.444128
1029.080799 230.197874 -9.454699
593.736352 214.556658 -30.904053
569.456586 385.202194 -7.483997
305.268420 147.501534 -35.683406
1029.008500 206.564596 -15.792315
500.075505 94.051483 -2.358892
1029.067852 141.603446 -27.818469
1029.069269 165.176413 -18.524279
1029.133526 191.427176 -10.540003
18.849212 224.118218 -3.014915
-137.427081 174.316222 -5.579241
542.220466 5.841348 -25.360726
1029.220334 140.786220 -22.054353
10.773097 233.236515 -37.703006
1029.175277 141.288491 -25.554240
352.629421 78.829616 -33.049859
740.888568 253.940654 -34.718108
555.690346 98.806585 -4.757607
1029.228811 229.056026 -21.423484
1029.263211 229.727649 -8.828450
-55.251482 214.223218 -32.092582
1029.255636 140.847097 -10.347196
992.001117 270.313507 -22.136355
22.505471 154.457106 -34.221287
1029.093018 189.431262 -22.359625
88.473973 272.565282 -2.556935
855.158246 238.991992 -16.761609
436.864196 70.285336 -14.507181
591.310564 170.637185 -11.143337
1029.146176 187.848913 -9.040993
1029.240783 141.515258 -27.379984
-291.476391 338.472910 -5.946214
1029.025452 191.423095 -15.451683
279.601179 313.315325 -5.890119
-216.305870 219.086371 -26.194832
506.506241 4.448631 -10.082832
1029.083022 262.773429 -19.497108
1029.086616 250.371744 -7.973811
1029.037398 262.781573 -26.167907
1029.137774 227.226450 -10.712844
1029.144133 141.824809 -12.094427
787.311029 328.443945 -7.711683
1029.072346 230.843770 -24.585391
46.027787 137.454952 -31.690896
554.774550 5.724462 -11.531793
360.868146 63.554664 -21.468445
382.096513 264.872565 -25.652442
-182.820417 116.410439 -26.124320
666.164917 125.235814 -6.090567
520.995198 149.981764 -23.383063
-162.107520 220.592859 -5.668124
1029.220458 185.847851 -11.251454
1029.284457 252.216365 -23.460776
1029.129728 164.701498 -20.667179
626.618474 168.738801 -19.610752
387.783660 289.175231 -6.762434
851.339103 107.942122 -6.741909
1029.029557 189.622144 -9.059488
1029.097936 262.061277 -16.866182
1029.292222 139.341657 -20.537809
1029.028994 140.404660 -8.938870
567.440345 10.331742 -6.891295
1029.005844 140.255329 -9.204981
-501.116632 193.328905 -16.343120
422.364659 386.234165 -5.736371
1029.087163 227.049554 -11.271518
649.181970 187.636701 -19.215345
721.379618 358.583294 -18.132171
-59.766584 11.718327 -11.769695
1029.284670 252.620977 -25.589771
-344.776209 212.115680 -37.910602
1029.146218 191.360374 -20.366622
859.943900 177.861531 -8.924089
1028.984297 152.167014 -15.410153
339.846627 236.036566 -34.403797
1028.977495 139.629717 -6.673073
17.339809 329.705692 -34.900140
1029.217982 189.239624 -24.197824
-199.258342 177.398088 -5.579331
676.113809 214.533859 -9.180292
-279.737614 57.433950 -26.347626
1029.331110 152.525238 -20.330589
50.320616 321.379183 -36.109972
1029.187656 251.079710 -22.841616
1029.318670 140.222168 -7.695200
354.283985 77.609021 -4.991342
1029.189180 152.203793 -9.786901
769.565681 184.343472 -10.614520
1029.020630 165.105675 -19.151886
703.563699 171.911352 -6.907720
1029.190473 154.549839 -27.821762
1029.119299 138.490448 -7.169665
-180.610759 371.397232 -12.632372
1028.992859 189.529076 -21.214293
1029.200837 141.506837 -28.207214
1029.122687 189.627835 -12.980992
724.502600 251.343672 -8.229984
306.871985 199.537466 -11.792491
1029.067094 190.358882 -21.601804
1029.149717 228.931587 -26.989552
85.444479 187.831187 -35.678144
385.342195 367.545299 -4.775530
1029.126705 199.221430 -20.196635
892.923004 179.755155 -6.971230
1029.154759 191.002642 -23.581673
1029.118563 166.532241 -28.691753
536.687564 214.137288 -4.499954
1029.114841 139.297521 -11.567960
411.558032 245.110662 -3.276845
1029.136270 191.163161 -23.318089
548.331644 6.475536 -10.548444
1029.105731 205.069380 -15.635904
1028.991614 151.329544 -19.248305
-501.345984 193.588895 -16.841481
310.729774 168.636865 -36.687957
1029.120078 187.702432 -9.310782
1029.163817 184.148452 -21.974278
1029.312471 248.234907 -9.873754
302.185442 162.647341 -35.563284
1029.328978 136.843542 -18.881703
616.102254 334.864812 -24.784844
1029.222021 229.310936 -11.098716
1029.172426 140.413768 -21.018412
494.676561 111.463849 -16.991957
1029.118423 167.132526 -29.081801
1029.032436 162.086172 -8.090933
974.362953 131.278203 -6.660137
1029.236015 251.014534 -17.909152
121.823735 202.273715 -37.126193
352.682522 261.701267 -3.005062
1028.977966 139.590846 -10.513834
1029.013381 155.959542 -27.775785
374.902134 240.098087 -18.753953
117.163026 204.893952 -36.811824
1029.030631 206.195502 -29.210784
512.680976 149.480295 -6.946961
1029.122752 191.332256 -15.803695
1029.022018 152.098673 -9.721617
1028.979961 185.456998 -7.675500
-23.005527 25.789174 -31.718101
1029.034602 250.235039 -24.035320
739.191940 179.331520 -12.150089
339.973387 85.708738 -36.088316
-216.296556 218.827665 -6.142444
1029.121923 139.486113 -10.572183
761.958843 69.828721 -6.201862
1029.016906 187.725508 -9.274138
493.992831 213.149549 -27.524636
1029.281845 164.317919 -10.568704
2.630356 294.392649 -37.638851
634.078977 333.492589 -6.032192
14.735840 322.761375 -35.932908
448.008599 2.761696 -6.161595
400.884835 273.474580 -5.355285
1029.080642 139.809185 -8.448109
494.489863 98.281219 -2.328198
1029.190996 251.339016 -24.093351
692.786808 214.752441 -8.345809
-154.623375 213.807955 -19.319469
74.971802 299.984167 -37.252228
1029.091622 188.026010 -8.426024
334.269800 77.476121 -2.962930
1029.233175 246.857364 -23.058501
568.927851 384.878714 -26.116924
1029.182799 226.565878 -26.855878
507.005968 128.074872 -24.428293
1029.001557 265.025473 -24.043119
637.980017 160.815102 -22.560082
905.489317 179.422252 -6.859513
1029.147602 265.728428 -24.808093
1028.979811 266.614511 -21.884949
581.467433 389.520764 -23.883511
89.761438 178.132844 -26.340290
378.075462 7.721897 -0.963226
1029.072314 141.391280 -11.738849
540.809747 65.922244 -5.297069
951.044503 125.879911 -5.986854
586.299688 332.267423 -6.823399
796.802736 215.353020 -17.532861
</DataArray>
</Points>
<PointData>
<DataArray NumberOfComponents='1' type='Int32' Name='ParticleType' format='ascii'>
1
1
1
1
1
1
1
1
1
1
1
1
1
1
1
1
1
1
1
1
1
1
1
1
1
1
1
1
1
1
1
1
1
1
1
1
1
1
1
1
1
1
1
1
1
1
1
1
1
1
1
1
1
1
1
1
1
1
1
1
1
1
1
1
1
1
1
1
1
1
1
1
1
1
1
1
1
1
1
1
1
1
1
1
1
1
1
1
1
1
1
1
1
1
1
1
1
1
1
1
1
1
1
1
1
1
1
1
1
1
1
1
1
1
1
1
1
1
1
1
1
1
1
1
1
1
1
1
1
1
1
1
1
1
1
1
1
1
1
1
1
1
1
1
1
1
1
1
1
1
1
1
1
1
1
1
1
1
1
1
1
1
1
1
1
1
1
1
1
1
1
1
1
1
1
1
1
1
1
1
1
1
1
1
1
1
1
1
1
1
1
1
1
1
1
1
1
1
1
1
1
1
1
1
1
1
1
1
1
1
1
1
1
1
1
1
1
1
1
1
1
1
1
1
1
1
1
1
1
1
1
1
1
1
1
1
1
1
1
1
1
1
1
1
1
1
1
1
1
1
1
1
1
1
1
1
1
1
1
1
1
1
1
1
1
1
1
1
1
1
1
1
1
1
1
1
1
1
1
1
1
1
1
1
1
1
1
1
1
1
1
1
1
1
1
1
1
1
1
1
1
1
1
1
1
1
1
1
1
1
1
1
1
1
1
1
1
1
1
1
1
1
1
1
1
1
1
1
1
1
1
1
1
1
1
1
1
1
1
1
1
1
1
1
1
1
1
1
1
1
1
1
1
1
1
1
1
1
1
1
1
1
1
1
1
1
1
1
1
1
1
1
1
1
1
1
1
1
1
1
1
1
1
1
1
1
1
1
1
1
1
1
1
1
1
1
1
1
1
1
1
1
1
1
1
1
1
1
1
1
1
1
1
1
1
1
1
1
1
1
1
1
1
1
1
1
1
1
1
1
1
1
1
1
1
1
1
1
1
1
1
1
1
1
1
1
1
1
1
1
1
1
1
1
1
1
1
1
1
1
1
1
1
1
1
1
1
1
1
1
1
1
1
1
1
1
1
1
1
1
1
1
1
1
1
1
1
1
1
1
1
1
1
1
1
1
1
1
1
1
</DataArray>
<DataArray NumberOfComponents='1' type='Int32' Name='ParticleID' format='ascii'>
0
1
2
3
4
5
6
7
8
9
10
11
12
13
14
15
16
17
18
19
20
21
22
23
24
25
26
27
28
29
30
31
32
33
34
35
36
37
38
39
40
41
42
43
44
45
46
47
48
49
50
51
52
53
54
55
56
57
58
59
60
61
62
63
64
65
66
67
68
69
70
71
72
73
74
75
76
77
78
79
80
81
82
83
84
85
86
87
88
89
90
91
92
93
94
95
96
97
98
99
100
101
102
103
104
105
106
107
108
109
110
111
112
113
114
115
116
117
118
119
120
121
122
123
124
125
126
127
128
129
130
131
132
133
134
135
136
137
138
139
140
141
142
143
144
145
146
147
148
149
150
151
152
153
154
155
156
157
158
159
160
161
162
163
164
165
166
167
168
169
170
171
172
173
174
175
176
177
178
179
180
181
182
183
184
185
186
187
188
189
190
191
192
193
194
195
196
197
198
199
200
201
202
203
204
205
206
207
208
209
210
211
212
213
214
215
216
217
218
219
220
221
222
223
224
225
226
227
228
229
230
231
232
233
234
235
236
237
238
239
240
241
242
243
244
245
246
247
248
249
250
251
252
253
254
255
256
257
258
259
260
261
262
263
264
265
266
267
268
269
270
271
272
273
274
275
276
277
278
279
280
281
282
283
284
285
286
287
288
289
290
291
292
293
294
295
296
297
298
299
300
301
302
303
304
305
306
307
308
309
310
311
312
313
314
315
316
317
318
319
320
321
322
323
324
325
326
327
328
329
330
331
332
333
334
335
336
337
338
339
340
341
342
343
344
345
346
347
348
349
350
351
352
353
354
355
356
357
358
359
360
361
362
363
364
365
366
367
368
369
370
371
372
373
374
375
376
377
378
379
380
381
382
383
384
385
386
387
388
389
390
391
392
393
394
395
396
397
398
399
400
401
402
403
404
405
406
407
408
409
410
411
412
413
414
415
416
417
418
419
420
421
422
423
424
425
426
427
428
429
430
431
432
433
434
435
436
437
438
439
440
441
442
443
444
445
446
447
448
449
450
451
452
453
454
455
456
457
458
459
460
461
462
463
464
465
466
467
468
469
470
471
472
473
474
475
476
477
478
479
480
481
482
483
484
485
486
487
488
489
490
491
492
493
494
495
496
497
498
499
</DataArray>
<DataArray NumberOfComponents='1' type='Int8' Name='IsActive' format='ascii'>
1
0
1
1
0
1
0
1
1
1
0
1
1
1
1
0
1
0
1
0
1
1
0
1
0
0
1
0
1
1
1
1
1
1
0
1
0
0
1
0
1
1
1
1
1
1
1
1
0
1
0
1
0
1
1
0
1
1
0
1
1
0
1
1
0
1
1
0
0
0
0
1
0
0
1
1
1
0
1
1
1
0
0
0
0
1
1
0
0
0
1
0
0
0
0
1
1
1
0
0
0
1
0
1
1
0
1
0
1
0
0
1
1
0
0
0
1
0
1
1
1
1
0
0
1
1
0
1
0
0
1
1
0
0
0
0
0
1
0
1
0
0
1
0
0
1
1
0
0
0
0
1
0
0
0
1
0
1
1
1
1
1
0
1
1
1
0
1
1
1
1
0
0
1
0
1
1
0
1
0
0
0
0
0
1
0
0
1
1
1
1
0
0
1
1
0
0
1
0
0
0
0
1
0
1
0
1
0
0
1
1
0
0
0
0
0
0
1
0
1
0
1
1
0
0
0
1
1
1
0
0
1
1
0
0
1
0
1
1
1
1
1
0
0
0
1
1
1
1
1
1
0
0
0
0
1
1
1
1
1
1
1
0
1
0
0
1
1
0
1
0
1
0
1
0
1
0
1
0
1
0
0
0
0
0
1
0
1
0
1
1
0
0
1
1
1
0
1
0
1
1
0
0
0
1
0
0
1
1
0
0
1
1
0
0
1
0
1
0
1
0
0
1
1
1
0
1
0
0
0
1
1
1
0
1
0
1
1
1
0
0
1
0
1
1
0
1
1
1
1
0
0
1
0
1
1
1
0
0
0
0
0
1
0
1
1
1
1
1
1
1
1
0
0
0
1
1
1
0
0
0
0
1
0
1
0
0
1
1
1
0
1
0
1
0
1
0
1
0
1
1
1
0
1
0
0
1
0
1
0
1
0
0
1
0
0
0
1
1
0
0
1
1
0
1
0
0
1
0
0
0
1
0
0
1
1
0
0
0
1
0
1
0
0
1
0
0
1
0
1
1
0
0
1
1
0
1
0
0
0
1
0
1
1
1
0
1
0
1
0
1
1
1
1
0
0
1
0
1
1
1
0
1
0
1
0
1
0
1
1
0
0
1
1
0
0
1
1
1
1
</DataArray>
<DataArray NumberOfComponents='1' type='Int32' Name='ParticleTetID' format='ascii'>
66925
-61515
11269
66151
-58962
6876
-66558
69822
64819
17012
-66561
43033
7526
69482
72289
-64917
66655
-68099
6645
-66554
62158
95365
-58961
81758
-64916
-70586
57788
-61512
26620
67127
62753
35300
79583
67325
-112396
63093
-66561
-66555
54284
-66557
58123
76410
36557
78744
62990
9502
30868
63005
-64920
61221
-64914
66421
-61515
31607
19262
-61512
37063
7340
-64917
65830
30471
-64914
73535
63077
-72213
30490
52126
-64917
-66552
-66551
-66552
11159
-112396
-64916
33570
75002
63013
-58965
65903
61222
56719
-72207
-64920
-66554
-58961
52453
68746
-61515
-66557
-66558
33803
-64917
-72207
-66561
-61515
25958
30258
63883
-64919
-66548
-66561
401
-58962
3808
6111
-58955
59267
-59786
6433
-66554
-66554
2273
34040
-61518
-70584
-58965
85994
-64914
7940
69147
28835
59059
-64917
-66554
62897
27970
-146594
67413
-58962
-66560
22105
7472
-64914
-66588
-61518
-59791
-61512
71738
-112396
7472
-72210
-58965
78677
-61512
-58955
68329
61389
-58955
-59791
-156163
-66588
58519
-61515
-58955
-68105
90345
-66551
7322
33229
27919
65236
37084
-64916
76292
58716
71736
-64914
45154
69394
61961
13237
-66560
-58958
57960
-61511
63167
10690
-61514
63203
-58958
-72213
-64919
-61512
-68099
98736
-68105
-64919
57460
7297
7183
58959
-61518
-59783
62996
44480
-66558
-59786
61367
-59783
-66560
-58958
-58965
45575
-66557
63489
-59786
28315
-64914
-66551
9398
62936
-72207
-64916
-68102
-66561
-59788
-61511
62996
-61512
7073
-58955
173709
22119
-61518
-58955
-66551
63100
25541
61389
-61512
-66561
134439
47717
-59785
-66551
32997
-61518
67420
61225
68439
96215
63201
-61521
-61512
-58958
75197
72698
76215
59527
12364
72507
-72207
-68103
-68102
-64917
33805
71920
10094
16252
73711
45080
52362
-66554
61118
-64913
-66551
5902
19217
-61521
1874
-64920
2213
-61514
45167
-61515
10216
-61517
67201
-64916
65221
-64920
-64916
-66561
-64920
-61512
485
-66564
91581
-58961
66161
56593
-61512
-58955
19262
32361
63104
-66551
17887
-61518
7418
17374
-66555
-58952
-126563
74990
-66558
-61514
60002
5849
-64919
-66561
7451
30398
-66555
-66551
7490
-61520
69481
-64920
63185
-58965
-58955
62762
61437
26475
-72207
64784
-66560
-59786
-61512
31356
6950
61732
-66557
31822
-66557
50917
74393
77131
-58962
-58955
20065
-66551
79587
36663
-61518
30602
63908
87707
79961
-61512
-66561
7957
-61515
29719
7409
69394
-68102
-64914
-68105
-58955
-66551
76217
-58961
37724
61961
84956
82654
6887
62083
74405
9469
-61511
-64920
-59788
57121
82961
68583
-61512
-68102
-66557
-66551
61383
-66551
2276
-112399
-58955
69523
63422
5422
-64919
12976
-61518
59421
-66555
39311
-66552
40353
-61518
7256
62915
9604
-66558
31876
-64920
-66551
43076
-66552
65398
-59786
58683
-66561
-66588
7889
-61518
-66560
-61511
66909
50314
-61518
-58965
40408
45524
-72210
66945
-61518
-59791
61238
-66551
-126559
-61518
61961
-72207
-66554
2276
49841
-61512
-61518
-64913
48706
-66591
77032
-58955
-66557
52118
-59791
-59782
59023
-64916
44045
34634
-66551
-66561
82989
44153
-72213
69105
-61515
-66552
-61512
3415
-64919
63095
41309
7400
-66551
70309
-61512
51690
-59783
26620
64640
45647
53264
-127033
-66551
52148
-64919
62897
7514
29427
-61512
44802
-64919
61354
-58965
70499
-68105
58601
67467
-68105
-68106
68069
98736
-153844
-66551
68240
56414
57207
63044
</DataArray>
<DataArray NumberOfComponents='3' type='Float32' Name='vels' format='ascii'>
0.283037 -0.074557 -0.000669
2.941750 0.743093 0.251364
1.255308 0.338124 -0.000513
0.336968 0.039179 0.000124
4.011166 -0.808442 0.007605
0.296266 -0.044785 -0.000507
5.291425 0.658114 0.015048
1.546904 -0.131164 -0.001208
0.230898 -0.101189 -0.001360
0.709094 0.048744 -0.000009
4.043204 0.516567 -0.062035
0.270462 0.228839 0.013441
0.155001 0.000588 -0.000629
0.995327 0.529354 0.000690
0.392202 0.301553 0.014397
4.781214 -0.633258 0.223552
0.181473 -0.002175 0.001017
1.841632 -0.359408 0.096556
0.070426 0.011582 -0.000780
4.618366 0.202199 0.374453
0.195543 0.030965 0.002175
1.120284 -3.330082 0.007815
3.564954 -0.948543 -0.100939
-0.002344 0.000338 0.000955
5.081494 -0.728568 0.061442
2.709453 -0.571234 0.037044
2.292152 0.100013 0.001077
2.291721 0.555347 0.251364
0.578951 -0.197717 0.000011
1.633729 -0.019991 -0.000663
0.023877 -0.000018 -0.000162
0.036532 -0.041358 -0.002126
3.285943 -0.685139 -0.003611
0.069943 -0.000051 -0.000099
30.832558 8.406263 0.242404
0.721220 0.006891 -0.001019
3.361597 0.485264 0.057820
5.072144 0.616756 0.203979
0.005060 0.005647 0.002564
4.822554 0.159554 -0.071552
1.705405 0.430329 0.001631
0.396960 0.240243 0.000521
1.104963 0.380052 0.000034
3.645497 0.803494 0.000459
0.320571 -0.000395 0.000376
0.012407 -0.000965 -0.000005
0.012672 0.016735 -0.000004
0.764850 -0.005073 -0.000161
5.038774 -0.652624 0.013047
0.081478 -0.000001 0.001410
2.926561 -0.297746 0.581025
1.101906 0.016402 -0.000039
2.831417 0.656188 0.157502
1.112882 -0.917880 -0.000665
0.001162 -0.000131 -0.000253
2.459462 0.587685 0.168515
0.426284 0.051206 -0.000790
0.358128 -0.001070 0.002583
4.325011 -0.485807 0.474073
0.578879 0.009262 -0.000725
0.966404 0.451584 0.001160
3.009809 -0.323029 0.523657
0.728981 -0.016646 0.000983
1.277759 0.017330 -0.000364
1.625300 0.032475 -0.102624
0.196181 -0.034149 0.000030
0.000796 0.001355 -0.000000
4.340364 -0.231916 0.365021
3.114425 0.129711 0.500337
4.121013 0.480241 0.104173
3.314428 0.340714 0.441299
0.285106 -0.009154 0.000889
46.675339 14.517866 -0.076229
4.966831 -0.741021 0.103249
1.144437 0.136975 0.093813
-0.000074 -0.000340 -0.002333
1.481911 -0.035305 -0.001912
4.058145 -0.762731 -0.344492
0.014931 -0.000067 0.000028
0.001278 -0.000003 -0.001010
0.564688 0.136613 0.001509
2.447300 0.404613 0.136695
4.955756 -0.666599 0.026369
5.270291 0.597518 0.093265
3.790543 -0.755850 0.004429
1.609294 0.868148 0.001010
3.288969 -0.761781 0.000745
2.891380 0.658313 0.072510
4.708169 0.714293 0.041555
5.286538 0.662013 0.016323
2.483147 -0.888663 0.002818
4.335292 -0.493674 0.469468
2.376679 0.415278 0.303110
3.978817 0.514039 -0.035953
2.925429 0.736889 0.253986
0.608002 0.023882 0.001325
1.030090 -0.094854 -0.000688
1.094827 -0.097672 -0.000942
4.657912 -0.665986 -0.017331
0.402313 0.016930 0.069481
4.122142 0.520750 -0.092827
0.016277 0.000028 -0.000284
4.068510 -0.838672 0.002245
0.003015 -0.000028 -0.000861
0.016733 0.002707 0.000337
3.529941 -0.711878 0.030954
2.634680 0.159524 -0.002063
5.068028 0.739679 0.098900
0.149587 0.024194 -0.000002
5.282705 0.607003 0.090999
4.672356 0.220515 0.340548
0.000903 0.001837 0.000712
0.052220 0.095062 -0.001031
2.719856 0.689432 0.014472
1.875758 -0.371275 0.170103
3.526443 -0.813141 -0.314200
0.001116 -0.000505 0.003408
2.977139 -0.317598 0.549789
0.030304 0.008860 -0.000683
3.885340 -0.333492 0.004120
0.217441 0.257617 0.000802
0.542187 0.025985 -0.000556
5.097804 -0.739710 -0.004191
5.187976 0.534039 0.131804
0.258713 -0.000703 0.000035
0.012275 0.007560 0.000013
0.063052 -0.112684 0.126129
0.126800 0.000342 -0.000518
3.941319 -0.939718 0.019078
3.094111 0.466580 0.051646
0.434136 0.381937 0.000722
0.034120 0.000045 -0.001366
2.947628 -0.317004 0.559127
3.315421 0.229466 0.303735
3.114699 0.812712 -0.006021
3.981705 0.784788 -0.179278
2.397503 0.576482 0.045044
0.060105 0.000015 -0.000748
46.605008 17.425592 -0.121316
0.062313 -0.000006 -0.001071
2.453705 0.036037 -0.002453
3.273935 -0.703619 -0.146819
0.462037 0.471013 -0.000375
2.267504 0.537684 0.170558
3.031390 -0.650702 0.168210
0.901761 0.007091 -0.000171
0.013833 -0.000005 -0.000193
3.485382 -0.705401 0.047642
4.244217 0.718171 -0.088138
0.078912 -0.035162 -0.038296
3.309975 0.272851 0.268077
0.843809 -0.169553 -0.000787
3.143853 0.750221 0.009430
3.065246 -0.673178 0.198509
4.241233 -0.744797 0.007929
5.033604 2.028357 0.194446
3.991307 0.425104 0.155119
0.023712 0.000030 0.000596
1.968559 0.054625 -0.004433
5.095153 0.396252 0.001920
1.055212 -0.013569 -0.001679
1.525810 -1.412801 0.001375
4.864729 -0.743999 0.144699
4.811821 0.634720 -0.003022
0.446489 0.186838 0.000640
1.032832 -0.000557 -0.003465
2.983754 -0.330680 0.536378
-0.005530 -0.031919 -0.001127
0.068798 0.000101 -0.001031
0.009272 -0.000000 -0.000398
0.742416 0.104446 -0.000610
2.912069 0.446903 0.058844
4.195891 -0.823559 0.007726
0.653866 0.007738 -0.001732
3.421469 0.801853 0.232091
0.308980 0.001148 0.000528
-0.000064 0.000144 0.000122
3.917611 0.961390 0.066384
0.439611 0.002195 0.000051
3.998002 -0.839101 0.052347
2.110943 0.365026 -0.216448
4.558290 -0.718325 -0.153658
2.517882 0.602668 0.087560
2.602964 -0.618944 0.038887
0.002480 -0.000607 0.000570
3.746715 -0.624846 0.010220
4.537418 -0.639668 -0.001990
1.473288 0.083472 -0.003248
0.029192 -0.000046 -0.000015
0.866612 0.150625 0.000079
4.416150 -0.819212 0.016799
3.114020 0.835475 0.004567
4.032579 0.575637 0.282121
1.091456 -0.010724 -0.000395
0.404521 0.407267 -0.001864
5.273003 0.663612 0.018242
5.040750 0.742126 0.111195
0.008031 0.000022 -0.000718
4.238118 0.605920 0.212747
3.032198 0.458377 0.052126
3.570209 -0.858505 0.231158
3.211295 -0.716464 -0.163990