<VTKFile type='UnstructuredGrid' version='1.0' byte_order='LittleEndian' header_type='UInt64'>
<UnstructuredGrid>
<Piece NumberOfCells='500' NumberOfPoints='500'>
<Points>
<DataArray NumberOfComponents='3' type='Float32' Name='Position' format='ascii'>
520.742962 189.655753 -4.709346
1029.059357 188.209033 -16.808274
-219.657666 356.470537 -6.043088
573.771119 261.469197 -6.411965
1029.278797 232.304881 -20.074967
-178.757254 117.737997 -2.137271
1029.253611 152.748402 -21.930599
764.730582 244.331762 -5.721025
516.030782 195.057773 -4.471925
-95.075047 282.021303 -4.945926
1029.136333 154.676584 -29.201451
36.061887 105.610149 -29.533588
-146.681452 223.503458 -6.124975
545.177252 91.654687 -4.440002
581.193808 216.266481 -4.351162
1029.359902 252.147987 -15.006536
852.245500 176.947302 -6.547917
1029.087137 262.783777 -11.868301
-186.786291 312.068454 -6.830487
1029.193912 138.980634 -19.474711
821.595780 153.088132 -13.082118
303.743227 52.950307 -4.409392
1029.076102 228.539705 -26.569211
460.841054 396.381309 -3.889477
1029.103216 249.678682 -17.080837
1028.990499 208.533237 -16.447437
784.997804 173.174604 -17.543021
1029.136178 186.426719 -8.694585
43.883012 282.036657 -37.550819
677.507081 355.510676 -7.596832
605.055742 215.372076 -12.292851
327.873660 78.661177 -2.560813
1029.231420 262.000992 -8.732897
1002.746869 212.566215 -9.880222
422.306524 386.274159 -3.543799
778.780492 188.225485 -7.856411
1029.074164 155.183680 -27.112406
1029.321351 153.281068 -16.377951
474.589215 102.150513 -32.405771
1028.982668 142.206514 -26.628187
788.828302 76.035462 -6.177533
558.397651 104.651644 -2.842847
113.523661 189.740496 -36.989013
1029.147816 142.387907 -29.713177
695.778201 214.272006 -17.590261
-271.460269 218.256747 -37.610468
15.483049 138.877356 -35.150556
810.688329 214.993599 -9.019363
1029.339088 256.934836 -22.392138
627.287979 188.861539 -6.900952
1029.096555 251.048780 -9.627166
636.638636 255.026271 -5.662424
1029.044092 190.888146 -17.070591
123.743959 215.704293 -37.183642
-491.806637 186.612575 -1.981927
1029.140656 185.673421 -7.749712
350.071208 303.477588 -5.467520
-257.850452 182.026309 -31.385838
1029.281029 251.617953 -16.541149
612.146836 6.479719 -11.726013
57.872928 200.740950 -33.975839
1029.144067 251.298274 -9.433218
566.185359 388.017474 -8.430374
797.236612 184.751687 -10.653455
1029.099325 207.296483 -29.207397
8.459712 259.271977 -37.408557
500.106799 101.876144 -36.551582
1029.003818 260.121252 -19.353480
1029.219105 141.565174 -7.227381
1029.030335 140.847806 -10.327024
1029.210581 151.177371 -10.058554
-287.161789 182.365558 -34.790741
422.743582 386.163063 -3.664093
1029.370072 249.889205 -17.917543
485.823490 218.155273 -3.868753
568.805015 204.315750 -30.134969
790.832709 215.484736 -28.893355
1029.088630 226.583231 -26.791639
615.594046 191.464935 -8.165315
623.171376 181.806842 -13.334602
564.439979 60.324589 -6.141280
1029.075219 199.084609 -13.594524
1029.306689 250.607125 -21.757990
1029.275264 140.263570 -17.033113
1029.110714 228.986199 -22.802082
540.657742 90.783579 -4.256060
1029.118126 264.933374 -10.231840
1029.150350 191.275146 -16.086105
1029.304192 140.303527 -20.675616
1029.296586 152.742705 -21.728450
225.375720 196.969253 -35.217607
1029.317875 251.504023 -16.457303
1029.142010 196.584875 -14.344229
1029.292726 155.217574 -29.018318
1029.213633 188.409014 -16.858498
317.457299 220.532646 -2.590860
114.693297 201.004195 -2.474677
668.352255 257.567692 -6.213417
1029.337316 249.376128 -23.538960
1029.006290 140.497051 -6.606818
1029.101994 154.322595 -29.456101
-42.761072 381.796802 -12.125838
1029.023898 231.951962 -20.916878
-432.637377 176.875244 -26.656872
-368.578926 248.810426 -20.004376
1029.244989 230.300666 -9.687840
812.298808 177.077691 -20.542036
1029.318341 165.992030 -17.959244
-298.975744 259.552607 -19.842034
1028.977543 140.299234 -17.001177
1029.189046 140.141349 -19.420439
-501.795583 192.417896 -9.639819
254.735629 286.801419 -3.299954
1029.088515 191.145182 -20.070877
1029.119364 214.611647 -7.296110
1029.162892 231.219450 -28.952026
365.121028 73.459645 -19.451715
1029.069190 250.884586 -9.429735
-202.844976 363.788353 -5.536361
1029.161448 191.361488 -22.229912
20.629736 102.487612 -35.847004
760.052030 165.377260 -4.898034
1029.203531 259.133438 -14.979347
1029.386622 140.349597 -17.517165
726.207897 214.285327 -8.841806
122.316067 222.308861 -33.781334
377.639320 41.467018 -2.348081
609.065722 213.629702 -7.221297
1029.257480 229.715106 -21.899225
1029.221177 141.549552 -28.168380
11.489678 156.438126 -4.873355
-221.053110 214.196529 -5.372360
1029.184340 250.622315 -9.354484
1029.115912 138.104862 -11.754595
1029.020587 188.147850 -23.823336
1029.259073 166.069571 -28.080659
1029.121508 190.466885 -8.136797
938.747129 218.690922 -17.913165
422.237684 386.356569 -3.913509
-219.133362 212.783977 -3.897836
1028.976683 198.275371 -20.143932
1029.216848 231.067388 -27.441933
539.473198 140.727530 -36.495496
1029.134359 189.002731 -8.993922
1028.982673 228.031097 -11.093356
645.313383 362.051853 -6.530701
567.844428 8.160028 -20.108127
1029.064718 230.128527 -9.890916
1029.261154 171.158954 -29.184869
381.472231 52.266270 -10.001146
1029.152980 136.636137 -10.985803
725.009868 327.015619 -6.139772
1029.072949 189.720784 -13.672791
1029.126679 229.823613 -11.368067
1029.116635 266.379400 -22.171789
249.115307 312.660510 -13.603378
1029.194718 140.926378 -10.790143
-140.630849 180.001403 -31.618428
307.968882 194.482691 -2.846687
284.069563 213.071870 -5.585460
730.061153 220.119266 -12.397915
210.313467 226.992368 -9.976128
1029.165082 249.277036 -18.436584
1029.236544 229.448986 -17.039859
557.570125 87.844466 -2.647992
931.887917 215.433382 -13.919191
1029.162656 250.509853 -9.214404
313.561174 169.851719 -26.645064
512.952144 3.905277 -13.199552
565.589398 10.388795 -12.508878
-105.739225 387.807448 -18.914081
1028.993105 141.600352 -27.791848
1029.312762 229.305865 -15.668280
638.534035 225.762823 -4.408343
1029.207264 189.143456 -11.935037
814.338879 180.829838 -12.346938
-521.967384 274.752969 -37.160506
1029.232534 189.628657 -19.390733
776.053743 187.978635 -9.539513
1029.259166 229.986926 -17.220021
1029.103068 198.247599 -27.320136
1028.989402 252.799752 -25.582654
1029.160703 187.417509 -7.500706
1029.086343 261.955222 -10.171866
90.128345 179.428962 -26.200281
1029.196213 265.861447 -23.563606
1029.060599 250.741090 -23.158830
656.574274 359.716633 -11.241105
-238.270196 175.724898 -19.955489
-209.204153 303.374160 -3.469347
1029.184939 230.710144 -21.207296
1029.139103 188.001014 -24.091368
1029.296602 165.116357 -11.684768
693.521223 213.883756 -28.522928
250.659842 266.147161 -2.728356
1029.246652 152.097065 -21.274371
1029.238727 166.185289 -18.220476
603.750655 6.375178 -12.377271
1029.317852 166.310171 -11.196974
1029.074538 141.753036 -28.112455
1028.978325 226.681346 -19.098767
1029.070636 229.001683 -26.946571
239.810722 248.196630 -34.841173
1029.076318 154.088305 -26.648681
670.441640 22.474018 -7.563305
1029.134247 165.425647 -17.916420
320.573200 44.968298 -5.116987
1028.993193 251.027087 -9.360745
1029.191202 138.906774 -12.100933
-191.432438 180.004741 -2.625096
774.237397 212.917250 -15.921758
1028.987540 207.207378 -15.083185
1029.256612 249.121303 -18.632310
1029.083419 261.565138 -18.628778
1029.186294 141.644426 -26.875536
1029.125480 163.915666 -20.865933
1029.067550 187.903334 -11.437351
685.003740 214.116368 -28.218232
1028.977323 191.701105 -10.560304
-10.814364 42.904315 -34.508936
1029.130325 227.908705 -11.363294
512.438864 136.351065 -23.788656
-1.252739 138.233957 -34.127768
1028.994581 191.539402 -20.807746
1029.089074 228.582486 -11.134421
1029.032689 139.337093 -11.491075
755.824982 180.691023 -26.322499
358.673721 71.211441 -35.772050
570.668452 8.088650 -20.121207
1029.118109 188.779216 -7.828990
1029.058995 154.448558 -27.720059
431.909000 254.555876 0.000849
439.597346 238.617312 -9.542562
1029.130825 162.909080 -15.085360
1029.287445 139.578995 -9.591735
265.370799 354.306517 -6.820950
1029.138655 191.579951 -20.417899
612.492201 220.587383 -25.764337
639.234847 180.422806 -19.844399
1029.215009 263.230013 -9.648705
309.242702 58.946066 -34.791654
800.798013 187.158078 -7.335053
1029.114565 185.116480 -26.917102
1029.027159 188.449629 -8.741109
1029.088616 227.990706 -18.525192
621.077167 164.057591 -23.871511
644.171199 190.854258 -30.001861
917.415137 293.299530 -8.102432
795.055587 78.412692 -6.580424
0.001562 157.522962 -34.184135
964.069560 216.957471 -8.351942
1028.993735 205.652109 -16.980837
1029.000713 266.680231 -14.841078
1029.019230 264.554280 -17.341043
1029.020443 260.195748 -17.082613
469.947736 83.265266 -5.855318
792.894209 175.860833 -24.020026
-107.574671 389.726598 -30.682081
-19.165427 286.267497 -36.835856
595.323634 184.275771 -6.004097
318.519046 188.816836 -18.224635
506.586735 211.207686 -3.922032
1028.992364 140.724015 -18.226469
914.014275 191.229599 -14.510899
1029.288175 250.532170 -11.240318
1028.982169 140.578835 -8.523235
0.013258 205.765187 -36.868245
-498.991891 188.816416 -24.948970
1028.991480 184.793799 -26.995024
-148.272281 281.725769 -4.241843
1029.263509 251.378450 -21.648380
-405.767389 126.064083 -35.873197
1029.055936 181.494904 -18.997324
311.024762 157.350437 -11.002670
1029.168282 189.604127 -16.148881
-138.097276 174.448772 -26.088621
1029.060040 188.469406 -26.483053
1029.156936 166.796368 -19.504463
1029.062033 251.332961 -17.754174
769.870111 219.668384 -19.213627
1029.058731 251.612451 -21.507725
1029.209896 251.530546 -18.765869
1029.226357 141.141672 -26.962504
1029.035831 258.818714 -21.723534
1029.137454 191.840832 -7.148699
-16.559726 143.802276 -33.767072
1028.992617 143.275617 -33.765066
223.416604 249.693042 -3.753028
1029.052570 231.238678 -23.593649
667.260509 256.518605 -26.352321
699.358790 325.422752 -6.202266
1029.019086 186.784368 -8.920433
1029.062089 229.606706 -11.842059
-492.863080 185.905752 -3.653001
24.639434 125.309481 -33.892353
761.003872 186.610184 -29.708469
1029.055737 139.105929 -11.640209
-7.307680 152.973882 -31.245358
1029.084872 192.212440 -20.238293
-254.184385 212.271054 -5.060009
-98.991376 217.347963 -12.725275
1028.996143 151.715862 -17.273462
1028.994285 231.174448 -6.028807
411.591621 245.039275 -3.410562
571.804562 210.032248 -4.741477
1029.256785 153.702561 -22.613375
1029.274629 189.295571 -19.419725
840.132303 318.389957 -15.467193
27.843555 167.209406 -33.442527
1029.096721 252.600993 -23.946544
1029.235200 153.879772 -27.568629
-282.654814 212.534922 -36.449913
295.314568 346.988774 -26.769226
1029.273908 151.732683 -17.452964
1029.014351 139.407205 -11.818104
-179.809898 215.884832 -4.357060
1028.984348 184.826144 -32.941579
542.923959 92.959799 -3.741857
1028.980649 249.835231 -21.175183
734.938188 187.705968 -11.250715
1029.188393 230.634547 -28.444128
1029.080799 230.197874 -9.454699
605.321003 214.596749 -30.803539
606.920661 385.045447 -7.403651
355.241686 60.011180 -34.317387
1029.008500 206.564596 -15.792315
518.752348 114.265255 -2.327621
1029.067852 141.603446 -27.818469
1029.069269 165.176413 -18.524279
1029.133526 191.427176 -10.540003
76.840143 219.142474 -3.003421
-118.474322 174.192968 -5.546060
555.624462 5.929591 -25.344826
1029.220334 140.786220 -22.054353
60.288587 229.938215 -37.716839
1029.175277 141.288491 -25.554240
363.405762 72.659190 -29.724061
795.187895 248.568626 -34.697948
584.634340 117.843104 -4.614374
1029.228811 229.056026 -21.423484
1029.263211 229.727649 -8.828450
15.472075 223.556571 -32.087135
1029.255636 140.847097 -10.347196
1029.144526 262.952322 -22.063480
66.740874 188.700143 -34.151649
1029.093018 189.431262 -22.359625
118.595463 229.013750 -2.248859
1029.246426 229.393185 -16.587050
497.992178 129.683619 -25.073106
676.050957 173.069866 -11.105470
1029.146176 187.848913 -9.040993
1029.240783 141.515258 -27.379984
-276.109821 342.807038 -5.918511
1029.025452 191.423095 -15.451683
302.202424 327.626825 -5.864413
-197.934402 219.275297 -26.133311
519.759355 4.682770 -10.126025
1029.083022 262.773429 -19.497108
1029.086616 250.371744 -7.973811
1029.037398 262.781573 -26.167907
1029.137774 227.226450 -10.712844
1029.144133 141.824809 -12.094427
892.649527 302.879542 -7.634073
1029.072346 230.843770 -24.585391
110.063710 167.406938 -31.987728
588.952044 5.832019 -11.709614
498.768166 122.842597 -22.627317
383.700478 264.405175 -20.005719
-169.453268 114.304968 -26.086644
671.042075 126.023955 -6.073696
587.937296 164.339760 -23.384453
-138.950833 221.014322 -5.623972
1029.220458 185.847851 -11.251454
1029.284457 252.216365 -23.460776
1029.129728 164.701498 -20.667179
740.920883 173.319778 -19.554845
387.810302 289.174375 -6.971911
955.968177 140.298159 -6.806998
1029.029557 189.622144 -9.059488
1029.097936 262.061277 -16.866182
1029.292222 139.341657 -20.537809
1029.028994 140.404660 -8.938870
572.138139 10.306371 -6.933036
1029.005844 140.255329 -9.204981
-500.976709 193.335007 -16.155088
422.364659 386.234165 -5.736371
1029.087163 227.049554 -11.271518
659.176080 187.663769 -19.211826
741.646853 352.968867 -18.130360
-51.768481 12.131114 -11.847468
1029.284670 252.620977 -25.589771
-332.384051 212.168321 -37.942000
1029.146218 191.360374 -20.366622
993.775560 179.989526 -8.890100
1028.984297 152.167014 -15.410153
375.818486 248.808855 -29.716729
1028.977495 139.629717 -6.673073
50.463952 327.296402 -34.722969
1029.217982 189.239624 -24.197824
-181.557465 177.169409 -5.546195
697.390925 214.269820 -9.228119
-272.340452 55.222718 -26.342802
1029.331110 152.525238 -20.330589
70.055411 317.136921 -36.075348
1029.187656 251.079710 -22.841616
1029.318670 140.222168 -7.695200
461.236466 84.529304 -5.476082
1029.189180 152.203793 -9.786901
794.876624 184.767526 -10.611747
1029.020630 165.105675 -19.151886
786.235617 175.635587 -6.881699
1029.190473 154.549839 -27.821762
1029.119299 138.490448 -7.169665
-163.161611 376.371687 -12.658301
1028.992859 189.529076 -21.214293
1029.200837 141.506837 -28.207214
1029.122687 189.627835 -12.980992
841.013051 240.940306 -8.135322
311.849416 150.536788 -10.317991
1029.067094 190.358882 -21.601804
1029.149717 228.931587 -26.989552
185.904859 166.712321 -35.738555
491.921856 354.998890 -6.647982
1029.126705 199.221430 -20.196635
991.800698 180.296527 -7.014543
1029.154759 191.002642 -23.581673
1029.118563 166.532241 -28.691753
563.960229 222.267792 -4.459800
1029.114841 139.297521 -11.567960
411.558032 245.110662 -3.276845
1029.136270 191.163161 -23.318089
576.240132 6.648750 -10.693893
1029.105731 205.069380 -15.635904
1028.991614 151.329544 -19.248305
-501.244168 193.535597 -16.658491
311.012288 146.272604 -37.035554
1029.120078 187.702432 -9.310782
1029.163817 184.148452 -21.974278
1029.312471 248.234907 -9.873754
351.354294 61.912409 -34.869020
1029.328978 136.843542 -18.881703
716.293187 317.860015 -24.839353
1029.222021 229.310936 -11.098716
1029.172426 140.413768 -21.018412
537.700486 158.192797 -16.965678
1029.118423 167.132526 -29.081801
1029.032436 162.086172 -8.090933
1029.041121 142.217793 -6.243565
1029.236015 251.014534 -17.909152
258.756025 214.087165 -37.145718
459.597434 240.395824 -0.744639
1028.977966 139.590846 -10.513834
1029.013381 155.959542 -27.775785
485.830530 201.820051 -26.364571
256.398128 213.936361 -36.822064
1029.030631 206.195502 -29.210784
534.683487 165.080647 -6.947583
1029.122752 191.332256 -15.803695
1029.022018 152.098673 -9.721617
1028.979961 185.456998 -7.675500
-4.698742 39.529265 -31.697688
1029.034602 250.235039 -24.035320
758.391792 179.674545 -12.158233
363.248194 67.716336 -34.312721
-206.552936 218.991382 -6.206198
1029.121923 139.486113 -10.572183
833.935625 87.556412 -6.208685
1029.016906 187.725508 -9.274138
541.165650 204.288914 -27.488155
1029.281845 164.317919 -10.568704
32.666960 285.301779 -37.645331
669.338393 327.131612 -6.014120
53.175660 315.796214 -35.934716
452.347647 2.900670 -6.635768
400.884835 273.474580 -5.355285
1029.080642 139.809185 -8.448109
508.557963 115.810774 -2.353254
1029.190996 251.339016 -24.093351
712.301765 214.472372 -8.322587
-137.997821 213.858599 -19.275831
102.721978 272.805798 -37.273252
1029.091622 188.026010 -8.426024
452.909762 70.854797 -1.051345
1029.233175 246.857364 -23.058501
604.629855 385.019976 -26.113003
1029.182799 226.565878 -26.855878
556.557041 161.483226 -24.416116
1029.001557 265.025473 -24.043119
773.717303 169.145009 -22.590977
1000.036998 181.927633 -6.880004
1029.147602 265.728428 -24.808093
1028.979811 266.614511 -21.884949
612.362608 389.404530 -23.822223
89.784820 178.217773 -26.299714
378.075462 7.721897 -0.963226
1029.072314 141.391280 -11.738849
577.826027 66.776532 -5.289813
1029.042814 142.222528 -5.287601
635.936214 329.476642 -6.875729
837.106542 214.889478 -17.598794
</DataArray>
</Points>
<PointData>
<DataArray NumberOfComponents='1' type='Int32' Name='ParticleType' format='ascii'>
1
1
1
1
1
1
1
1
1
1
1
1
1
1
1
1
1
1
1
1
1
1
1
1
1
1
1
1
1
1
1
1
1
1
1
1
1
1
1
1
1
1
1
1
1
1
1
1
1
1
1
1
1
1
1
1
1
1
1
1
1
1
1
1
1
1
1
1
1
1
1
1
1
1
1
1
1
1
1
1
1
1
1
1
1
1
1
1
1
1
1
1
1
1
1
1
1
1
1
1
1
1
1
1
1
1
1
1
1
1
1
1
1
1
1
1
1
1
1
1
1
1
1
1
1
1
1
1
1
1
1
1
1
1
1
1
1
1
1
1
1
1
1
1
1
1
1
1
1
1
1
1
1
1
1
1
1
1
1
1
1
1
1
1
1
1
1
1
1
1
1
1
1
1
1
1
1
1
1
1
1
1
1
1
1
1
1
1
1
1
1
1
1
1
1
1
1
1
1
1
1
1
1
1
1
1
1
1
1
1
1
1
1
1
1
1
1
1
1
1
1
1
1
1
1
1
1
1
1
1
1
1
1
1
1
1
1
1
1
1
1
1
1
1
1
1
1
1
1
1
1
1
1
1
1
1
1
1
1
1
1
1
1
1
1
1
1
1
1
1
1
1
1
1
1
1
1
1
1
1
1
1
1
1
1
1
1
1
1
1
1
1
1
1
1
1
1
1
1
1
1
1
1
1
1
1
1
1
1
1
1
1
1
1
1
1
1
1
1
1
1
1
1
1
1
1
1
1
1
1
1
1
1
1
1
1
1
1
1
1
1
1
1
1
1
1
1
1
1
1
1
1
1
1
1
1
1
1
1
1
1
1
1
1
1
1
1
1
1
1
1
1
1
1
1
1
1
1
1
1
1
1
1
1
1
1
1
1
1
1
1
1
1
1
1
1
1
1
1
1
1
1
1
1
1
1
1
1
1
1
1
1
1
1
1
1
1
1
1
1
1
1
1
1
1
1
1
1
1
1
1
1
1
1
1
1
1
1
1
1
1
1
1
1
1
1
1
1
1
1
1
1
1
1
1
1
1
1
1
1
1
1
1
1
1
1
1
1
1
1
1
1
1
1
1
1
1
1
1
1
1
1
1
1
1
1
1
1
1
1
1
1
1
1
1
1
1
1
1
1
</DataArray>
<DataArray NumberOfComponents='1' type='Int32' Name='ParticleID' format='ascii'>
0
1
2
3
4
5
6
7
8
9
10
11
12
13
14
15
16
17
18
19
20
21
22
23
24
25
26
27
28
29
30
31
32
33
34
35
36
37
38
39
40
41
42
43
44
45
46
47
48
49
50
51
52
53
54
55
56
57
58
59
60
61
62
63
64
65
66
67
68
69
70
71
72
73
74
75
76
77
78
79
80
81
82
83
84
85
86
87
88
89
90
91
92
93
94
95
96
97
98
99
100
101
102
103
104
105
106
107
108
109
110
111
112
113
114
115
116
117
118
119
120
121
122
123
124
125
126
127
128
129
130
131
132
133
134
135
136
137
138
139
140
141
142
143
144
145
146
147
148
149
150
151
152
153
154
155
156
157
158
159
160
161
162
163
164
165
166
167
168
169
170
171
172
173
174
175
176
177
178
179
180
181
182
183
184
185
186
187
188
189
190
191
192
193
194
195
196
197
198
199
200
201
202
203
204
205
206
207
208
209
210
211
212
213
214
215
216
217
218
219
220
221
222
223
224
225
226
227
228
229
230
231
232
233
234
235
236
237
238
239
240
241
242
243
244
245
246
247
248
249
250
251
252
253
254
255
256
257
258
259
260
261
262
263
264
265
266
267
268
269
270
271
272
273
274
275
276
277
278
279
280
281
282
283
284
285
286
287
288
289
290
291
292
293
294
295
296
297
298
299
300
301
302
303
304
305
306
307
308
309
310
311
312
313
314
315
316
317
318
319
320
321
322
323
324
325
326
327
328
329
330
331
332
333
334
335
336
337
338
339
340
341
342
343
344
345
346
347
348
349
350
351
352
353
354
355
356
357
358
359
360
361
362
363
364
365
366
367
368
369
370
371
372
373
374
375
376
377
378
379
380
381
382
383
384
385
386
387
388
389
390
391
392
393
394
395
396
397
398
399
400
401
402
403
404
405
406
407
408
409
410
411
412
413
414
415
416
417
418
419
420
421
422
423
424
425
426
427
428
429
430
431
432
433
434
435
436
437
438
439
440
441
442
443
444
445
446
447
448
449
450
451
452
453
454
455
456
457
458
459
460
461
462
463
464
465
466
467
468
469
470
471
472
473
474
475
476
477
478
479
480
481
482
483
484
485
486
487
488
489
490
491
492
493
494
495
496
497
498
499
</DataArray>
<DataArray NumberOfComponents='1' type='Int8' Name='IsActive' format='ascii'>
1
0
1
1
0
1
0
1
1
1
0
1
1
1
1
0
1
0
1
0
1
1
0
1
0
0
1
0
1
1
1
1
0
1
0
1
0
0
1
0
1
1
1
0
1
1
1
1
0
1
0
1
0
1
1
0
1
1
0
1
1
0
1
1
0
1
1
0
0
0
0
1
0
0
1
1
1
0
1
1
1
0
0
0
0
1
0
0
0
0
1
0
0
0
0
1
1
1
0
0
0
1
0
1
1
0
1
0
1
0
0
1
1
0
0
0
1
0
1
0
1
1
0
0
1
1
0
1
0
0
1
1
0
0
0
0
0
1
0
1
0
0
1
0
0
1
1
0
0
0
0
1
0
0
0
1
0
1
1
1
1
1
0
0
1
1
0
1
1
1
1
0
0
1
0
1
1
0
1
0
0
0
0
0
1
0
0
1
1
1
0
0
0
1
1
0
0
1
0
0
0
0
1
0
1
0
1
0
0
1
1
0
0
0
0
0
0
1
0
1
0
1
1
0
0
0
1
1
1
0
0
0
1
0
0
1
0
1
1
0
1
1
0
0
0
1
1
1
1
1
1
0
0
0
0
1
1
1
1
1
1
1
0
1
0
0
1
1
0
1
0
1
0
1
0
1
0
0
0
1
0
0
0
0
0
1
0
1
0
1
1
0
0
1
1
1
0
1
0
1
1
0
0
0
1
0
0
1
1
0
0
1
1
0
0
1
0
1
0
1
0
0
1
1
1
0
1
0
0
0
1
1
1
0
1
0
1
1
1
0
0
1
0
0
1
0
1
0
1
1
0
0
1
0
1
1
1
0
0
0
0
0
1
0
1
1
1
1
1
1
1
1
0
0
0
1
1
1
0
0
0
0
1
0
1
0
0
1
1
1
0
1
0
1
0
1
0
1
0
1
1
1
0
1
0
0
1
0
1
0
1
0
0
1
0
0
0
1
1
0
0
1
1
0
1
0
0
1
0
0
0
1
0
0
1
1
0
0
0
1
0
1
0
0
1
0
0
0
0
1
1
0
0
1
1
0
1
0
0
0
1
0
1
1
1
0
1
0
1
0
1
1
1
1
0
0
1
0
1
1
1
0
1
0
1
0
1
0
1
1
0
0
1
1
0
0
1
0
1
1
</DataArray>
<DataArray NumberOfComponents='1' type='Int32' Name='ParticleTetID' format='ascii'>
66457
-61515
7940
66079
-58962
8786
-66558
72902
66926
20683
-66561
46040
10405
76412
70526
-64917
68834
-68099
6645
-66554
62068
33049
-58961
81758
-64916
-70586
76723
-61512
26566
59835
67414
40790
-68099
73427
-112396
63075
-66561
-66555
51475
-66557
73297
73818
44439
-66560
62899
9502
31103
62951
-64920
61221
-64914
68005
-61515
92009
19262
-61512
32131
7286
-64917
65831
32398
-64914
61349
63167
-72213
30742
68956
-64917
-66552
-66551
-66552
9357
-112396
-64916
51678
75002
63050
-58965
61221
61224
68707
-72207
-64920
-66554
-58961
76410
-68099
-61515
-66557
-66558
41669
-64917
-72207
-66561
-61515
40446
34453
61705
-64919
-66548
-66561
1535
-58962
3808
5067
-58955
65351
-59786
6433
-66554
-66554
2273
27560
-61518
-70584
-58965
85776
-64914
7814
-61518
36593
77078
-64917
-66554
63023
27970
-146594
67413
-58962
-66560
32978
7399
-64914
-66588
-61518
-59791
-61512
59407
-112396
7400
-72210
-58965
60100
-61512
-58955
75259
61389
-58955
-59791
-156163
-66588
67141
-61515
-58955
-68105
30392
-66551
6962
48204
31286
65182
90920
-64916
-58958
60536
59802
-64914
45154
69394
61744
14407
-66560
-58958
62676
-61511
63059
10690
-61514
63077
-58958
-72213
-64919
-61512
-68099
98736
-68105
-64919
73317
7297
7184
-58962
-61518
-59783
62906
33104
-66558
-59786
65830
-59783
-66560
-58958
-58965
24821
-66557
70223
-59786
30187
-64914
-66551
9290
63008
-72207
-64916
-68102
-66561
-59788
-61511
62924
-61512
1997
-58955
74297
5849
-61518
-58955
-66551
63208
48454
61389
-61512
-66561
-136563
124680
-59785
-66551
30173
-61518
68050
72962
-68099
46745
63165
-61521
-61512
-58958
57123
72697
71481
73297
36754
61635
-72207
-68103
-68102
-64917
52057
65331
10814
13571
77924
45080
66403
-66554
71954
-64913
-66551
35062
19217
-61521
1874
-64920
2213
-61514
45167
-61515
6958
-61517
-59786
-64916
65203
-64920
-64916
-66561
-64920
-61512
5847
-66564
46244
-58961
61714
65755
-61512
-58955
19262
36807
63212
-66551
14539
-61518
7544
24160
-66555
-58952
-126563
59708
-66558
-61514
67380
30975
-64919
-66561
7432
29586
-66555
-66551
7526
-61520
76412
-64920
63095
-58965
-58955
67424
56937
39525
-72207
58987
-66560
-59786
-61512
33788
12080
61967
-66557
28779
-66557
85420
70829
56665
-58962
-58955
32306
-66551
-68105
29175
-61518
47576
-58958
51581
65289
-61512
-66561
7994
-61515
29629
7498
73516
-68102
-64914
-68105
-58955
-66551
60177
-58961
98544
61366
51581
82198
6868
62084
68519
2072
-61511
-64920
-59788
70387
82961
67521
-61512
-68102
-66557
-66551
61383
-66551
2276
-112399
-58955
63151
65491
5531
-64919
11123
-61518
68295
-66555
82481
-66552
31875
-61518
7382
62897
7661
-66558
38645
-64920
-66551
53911
-66552
63167
-59786
65325
-66561
-66588
17825
-61518
-66560
-61511
62321
43709
-61518
-58965
49137
53497
-72210
75153
-61518
-59791
76861
-66551
-126559
-61518
61312
-72207
-66554
2276
49750
-61512
-61518
-64913
32435
-66591
64271
-58955
-66557
75194
-59791
-59782
-66548
-64916
28115
53802
-66551
-66561
53182
28115
-72213
58215
-61515
-66552
-61512
21559
-64919
63203
85454
9451
-66551
68167
-61512
61608
-59783
24622
67358
26403
53245
-127033
-66551
59204
-64919
63023
17035
24784
-61512
54614
-64919
67096
-58965
58187
-68105
75647
68295
-68105
-68106
56945
98736
-153844
-66551
73225
-66548
70349
67778
</DataArray>
<DataArray NumberOfComponents='3' type='Float32' Name='vels' format='ascii'>
0.443669 -0.016614 0.000368
2.941750 0.743093 0.251364
0.031622 0.009220 -0.000411
0.801411 0.042300 -0.000002
4.011166 -0.808442 0.007605
0.216336 -0.033363 0.000290
5.291425 0.658114 0.015048
1.533735 -0.129741 0.000696
0.354316 -0.041883 0.000536
0.737564 0.018111 0.003812
4.043204 0.516567 -0.062035
0.048649 0.746264 0.003657
1.154646 0.035472 -0.000956
0.323043 0.251435 -0.002969
0.136559 0.023109 0.002566
4.781214 -0.633258 0.223552
0.003985 0.000030 0.001556
1.841632 -0.359408 0.096556
0.077140 0.013024 0.000874
4.618366 0.202199 0.374453
0.209982 0.032957 0.000790
0.325562 -1.054974 -0.007930
3.564954 -0.948543 -0.100939
0.008786 0.000200 0.001185
5.081494 -0.728568 0.061442
2.709453 -0.571234 0.037044
3.375286 0.183222 0.001370
2.291721 0.555347 0.251364
0.675035 -0.200353 -0.000456
1.626457 -0.378747 0.002190
0.251154 0.000739 -0.000760
0.619880 -1.059808 -0.004415
3.213363 -0.761119 -0.003224
1.288424 -0.869834 -0.065363
30.832558 8.406263 0.242404
0.755800 0.006853 -0.000347
3.361597 0.485264 0.057820
5.072144 0.616756 0.203979
0.229764 0.318034 0.005388
4.822554 0.159554 -0.071552
1.247966 0.317041 -0.001321
0.294084 0.338636 0.002128
5.046302 -2.166991 -0.004448
3.522981 0.454183 -0.022000
1.121281 -0.012668 0.000085
0.010244 -0.000709 -0.000002
0.085366 0.119753 -0.000094
0.043284 0.000061 0.000934
5.038774 -0.652624 0.013047
0.068082 -0.000275 0.000096
2.926561 -0.297746 0.581025
0.818347 -0.053058 0.000288
2.831417 0.656188 0.157502
0.062788 -0.063684 0.000152
-0.000849 0.000354 -0.000317
2.459462 0.587685 0.168515
0.773869 -0.457331 0.014688
0.076970 -0.000152 0.001504
4.325011 -0.485807 0.474073
0.156494 0.001332 -0.001665
3.185886 0.660166 0.006414
3.009809 -0.323029 0.523657
0.419737 -0.002088 -0.001773
0.106982 0.000242 0.000827
1.625300 0.032475 -0.102624
0.051736 -0.006338 0.000000
0.007843 0.009453 0.000005
4.340364 -0.231916 0.365021
3.114425 0.129711 0.500337
4.121013 0.480241 0.104173
3.314428 0.340714 0.441299
0.810135 -0.010075 -0.000445
46.675339 14.517866 -0.076229
4.966831 -0.741021 0.103249
0.565419 -0.351821 -0.003831
0.001338 0.004381 -0.003066
0.086874 -0.000385 -0.000588
4.058145 -0.762731 -0.344492
0.353887 0.004022 0.005053
0.003356 -0.000001 -0.000007
0.871654 -0.009663 0.001383
2.447300 0.404613 0.136695
4.955756 -0.666599 0.026369
5.270291 0.597518 0.093265
3.790543 -0.755850 0.004429
0.586130 0.346759 0.000958
3.198346 -0.576469 0.091015
2.891380 0.658313 0.072510
4.708169 0.714293 0.041555
5.286538 0.662013 0.016323
3.051089 0.949960 0.000604
4.335292 -0.493674 0.469468
2.376679 0.415278 0.303110
3.978817 0.514039 -0.035953
2.925429 0.736889 0.253986
0.382784 0.224675 0.000254
5.072215 -2.448426 -0.013333
0.701684 -0.066841 0.000340
4.657912 -0.665986 -0.017331
0.402313 0.016930 0.069481
4.122142 0.520750 -0.092827
1.180492 -0.423093 0.000226
4.068510 -0.838672 0.002245
0.001803 -0.000024 -0.000855
0.003510 0.000576 -0.003145
3.529941 -0.711878 0.030954
0.966166 0.007599 -0.002784
5.068028 0.739679 0.098900
0.153344 0.024847 -0.000326
5.282705 0.607003 0.090999
4.672356 0.220515 0.340548
0.001160 0.001140 0.001004
0.395242 0.568736 0.000436
2.719856 0.689432 0.014472
1.875758 -0.371275 0.170103
3.526443 -0.813141 -0.314200
0.000072 0.000004 -0.008743
2.977139 -0.317598 0.549789
0.311255 0.090125 -0.000415
2.856396 0.655576 -0.021302
0.218141 0.396194 -0.000493
0.970081 0.067690 0.000126
5.097804 -0.739710 -0.004191
5.187976 0.534039 0.131804
1.639670 -0.034008 -0.000479
0.007821 0.011766 0.000006
0.063052 -0.112684 0.126129
0.136187 0.000448 -0.000471
3.941319 -0.939718 0.019078
3.094111 0.466580 0.051646
0.582473 0.587860 -0.000227
0.374514 0.002426 -0.000721
2.947628 -0.317004 0.559127
3.315421 0.229466 0.303735
3.114699 0.812712 -0.006021
3.981705 0.784788 -0.179278
2.397503 0.576482 0.045044
3.205385 0.155430 0.002958
46.605008 17.425592 -0.121316
0.007217 -0.000003 -0.000978
2.453705 0.036037 -0.002453
3.273935 -0.703619 -0.146819
0.448557 0.283161 0.000126
2.267504 0.537684 0.170558
3.031390 -0.650702 0.168210
0.453489 -0.085566 -0.000207
0.049018 0.000001 -0.000983
3.485382 -0.705401 0.047642
4.244217 0.718171 -0.088138
0.078912 -0.035162 -0.038296
3.309975 0.272851 0.268077
1.434784 -0.280135 0.003142
3.143853 0.750221 0.009430
3.065246 -0.673178 0.198509
4.241233 -0.744797 0.007929
0.754637 1.162778 -0.000091
3.991307 0.425104 0.155119
0.127530 0.000108 0.000540
0.167599 -0.492815 0.004934
0.027570 0.007696 -0.001953
0.783499 -0.006658 -0.000900
1.973261 3.147218 -0.593066
4.864729 -0.743999 0.144699
4.023324 -0.834694 0.046985
0.140931 0.054675 0.001748
0.445911 0.003579 -0.006521
2.983754 -0.330680 0.536378
-0.000216 -0.001375 -0.001069
0.060793 0.000136 -0.000941
0.450686 0.001669 -0.000768
0.745400 0.003385 0.000558
2.912069 0.446903 0.058844
4.195891 -0.823559 0.007726
0.700884 -0.007115 0.000699
3.421469 0.801853 0.232091
0.019295 0.000042 0.001229
-0.001955 -0.000305 0.000112
3.917611 0.961390 0.066384
0.697741 0.004765 0.000010
3.998002 -0.839101 0.052347
2.110943 0.365026 -0.216448
4.558290 -0.718325 -0.153658
2.517882 0.602668 0.087560
2.602964 -0.618944 0.038887
0.005915 -0.002518 0.000233
3.746715 -0.624846 0.010220
4.537418 -0.639668 -0.001990
1.970365 -0.445777 0.000021
0.030577 -0.000048 -0.000293
0.120777 0.019535 -0.000662
4.022468 -0.876011 0.007542
3.114020 0.835475 0.004567
4.032579 0.575637 0.282121
0.019021 -0.000077 0.000037
0.400142 0.556310 -0.000124
5.273003 0.663612 0.018242
5.040750 0.742126 0.111195
0.347665 0.004666 -0.001001
4.238118 0.605920 0.212747
3.032198 0.458377 0.052126
3.570209 -0.858505 0.231158