<VTKFile type='UnstructuredGrid' version='1.0' byte_order='LittleEndian' header_type='UInt64'>
<UnstructuredGrid>
<Piece NumberOfCells='500' NumberOfPoints='500'>
<Points>
<DataArray NumberOfComponents='3' type='Float32' Name='Position' format='ascii'>
546.982077 189.494988 -4.688759
1029.059357 188.209033 -16.808274
-199.415875 362.100659 -6.076915
600.458774 262.145449 -6.414882
1029.278797 232.304881 -20.074967
-160.020670 114.922138 -2.174507
1029.253611 152.748402 -21.930599
871.866490 235.406588 -5.655868
546.386991 194.067580 -4.381592
-51.037242 286.243584 -5.193817
1029.136333 154.676584 -29.201451
89.863539 177.269655 -30.092245
-89.549375 223.839588 -6.140805
571.602533 114.952521 -4.319194
592.384624 216.795040 -4.379996
1029.359902 252.147987 -15.006536
904.651458 178.355054 -6.472590
1029.087137 262.783777 -11.868301
-114.463081 322.380458 -6.883081
1029.193912 138.980634 -19.474711
868.263072 159.789051 -13.171867
444.637697 20.383196 -2.494173
1029.076102 228.539705 -26.569211
460.843427 396.360247 -3.854998
1029.103216 249.678682 -17.080837
1028.990499 208.533237 -16.447437
1029.196326 188.604010 -17.100767
1029.136178 186.426719 -8.694585
91.413185 253.943310 -37.592262
830.973726 318.354989 -7.666564
619.628460 215.393636 -12.279367
440.549083 56.728324 -0.943613
1029.231420 262.000992 -8.732897
1029.083701 205.611464 -10.271489
422.306524 386.274159 -3.543799
848.714163 189.080386 -7.844902
1029.074164 155.183680 -27.112406
1029.321351 153.281068 -16.377951
490.469039 132.593275 -32.021109
1028.982668 142.206514 -26.628187
894.332534 101.355444 -6.150688
598.680123 120.164504 -2.843364
294.045745 165.089450 -37.103451
1029.147816 142.387907 -29.713177
739.683701 213.870723 -17.625563
-270.172943 218.193036 -37.665326
61.309365 183.304749 -35.075928
888.639571 213.484016 -9.010349
1029.339088 256.934836 -22.392138
657.320391 189.040314 -6.881055
1029.096555 251.048780 -9.627166
713.241714 248.672229 -5.667860
1029.044092 190.888146 -17.070591
220.718453 218.822969 -37.248702
-491.853716 186.670358 -2.034641
1029.140656 185.673421 -7.749712
489.779424 294.032906 -4.530765
-220.381863 181.711757 -31.226442
1029.281029 251.617953 -16.541149
645.412451 13.697485 -11.687528
260.433234 184.783679 -34.027572
1029.144067 251.298274 -9.433218
628.222857 385.736313 -8.382590
839.359578 185.515469 -10.589962
1029.099325 207.296483 -29.207397
68.104806 244.651224 -37.415194
519.716554 126.324847 -36.549819
1029.003818 260.121252 -19.353480
1029.219105 141.565174 -7.227381
1029.030335 140.847806 -10.327024
1029.210581 151.177371 -10.058554
-235.050260 181.620042 -34.757001
422.743582 386.163063 -3.664093
1029.370072 249.889205 -17.917543
522.189014 205.719934 -3.907672
572.099742 209.538718 -30.857326
855.822962 214.374546 -29.043843
1029.088630 226.583231 -26.791639
645.599905 191.591273 -8.021079
628.850543 181.914911 -13.356126
646.936835 64.474161 -6.196160
1029.075219 199.084609 -13.594524
1029.306689 250.607125 -21.757990
1029.275264 140.263570 -17.033113
1029.110714 228.986199 -22.802082
577.387906 118.130050 -4.158214
1029.118126 264.933374 -10.231840
1029.150350 191.275146 -16.086105
1029.304192 140.303527 -20.675616
1029.296586 152.742705 -21.728450
319.392639 228.445377 -35.163701
1029.317875 251.504023 -16.457303
1029.142010 196.584875 -14.344229
1029.292726 155.217574 -29.018318
1029.213633 188.409014 -16.858498
373.701144 243.667577 -1.361857
287.232016 206.741045 -2.564540
764.936563 247.058390 -6.175554
1029.337316 249.376128 -23.538960
1029.006290 140.497051 -6.606818
1029.101994 154.322595 -29.456101
34.769437 325.708564 -11.936718
1029.023898 231.951962 -20.916878
-432.589298 176.863837 -26.664552
-362.850999 249.735019 -20.060602
1029.244989 230.300666 -9.687840
1029.187334 191.618517 -20.456878
1029.318341 165.992030 -17.959244
-287.161382 261.488717 -19.873093
1028.977543 140.299234 -17.001177
1029.189046 140.141349 -19.420439
-501.680187 192.448070 -9.519335
282.543014 316.121698 -3.332568
1029.088515 191.145182 -20.070877
1029.119364 214.611647 -7.296110
1029.162892 231.219450 -28.952026
377.503601 70.115285 -8.432250
1029.069190 250.884586 -9.429735
-179.939154 370.378241 -5.636948
1029.161448 191.361488 -22.229912
41.752331 140.886143 -35.838094
867.690849 173.238541 -4.816690
1029.203531 259.133438 -14.979347
1029.386622 140.349597 -17.517165
772.319823 213.531782 -8.804850
122.304315 222.313187 -33.765851
377.639320 41.467018 -2.348081
631.413291 213.555046 -7.155085
1029.257480 229.715106 -21.899225
1029.221177 141.549552 -28.168380
123.608570 177.887308 -5.005580
-204.332203 214.353783 -5.414245
1029.184340 250.622315 -9.354484
1029.115912 138.104862 -11.754595
1029.020587 188.147850 -23.823336
1029.259073 166.069571 -28.080659
1029.121508 190.466885 -8.136797
1024.418022 206.702962 -18.054479
422.237684 386.356569 -3.913509
-202.508051 213.049212 -3.962632
1028.976683 198.275371 -20.143932
1029.216848 231.067388 -27.441933
572.268428 152.370582 -36.529932
1029.134359 189.002731 -8.993922
1028.982673 228.031097 -11.093356
722.142457 343.529823 -6.537847
572.179615 8.189890 -20.163667
1029.064718 230.128527 -9.890916
1029.261154 171.158954 -29.184869
381.472231 52.266270 -10.001146
1029.152980 136.636137 -10.985803
816.590339 308.462671 -6.177009
1029.072949 189.720784 -13.672791
1029.126679 229.823613 -11.368067
1029.116635 266.379400 -22.171789
319.886649 363.773687 -13.574433
1029.194718 140.926378 -10.790143
-121.126789 179.987502 -31.627471
325.519382 104.270358 -2.482465
348.366506 235.580918 -5.361627
760.423546 219.886304 -12.395308
267.460996 337.213328 -13.342132
1029.165082 249.277036 -18.436584
1029.236544 229.448986 -17.039859
568.125837 97.925196 -1.793418
1003.052216 207.191738 -14.301758
1029.162656 250.509853 -9.214404
313.566558 169.621425 -26.639856
517.008559 3.916418 -13.207883
592.670053 10.393372 -12.615162
-74.489110 387.695522 -18.862826
1028.993105 141.600352 -27.791848
1029.312762 229.305865 -15.668280
676.522475 225.039259 -4.417942
1029.207264 189.143456 -11.935037
853.323063 181.521167 -12.254252
-521.923754 274.704125 -37.154250
1029.232534 189.628657 -19.390733
817.877565 188.714030 -9.495987
1029.259166 229.986926 -17.220021
1029.103068 198.247599 -27.320136
1028.989402 252.799752 -25.582654
1029.160703 187.417509 -7.500706
1029.086343 261.955222 -10.171866
90.157487 179.506679 -26.182805
1029.196213 265.861447 -23.563606
1029.060599 250.741090 -23.158830
848.172046 312.817384 -11.202989
-236.329374 175.654665 -19.985974
-173.016225 309.716312 -3.539060
1029.184939 230.710144 -21.207296
1029.139103 188.001014 -24.091368
1029.296602 165.116357 -11.684768
732.774342 213.266836 -28.588627
277.611128 295.499913 -2.690301
1029.246652 152.097065 -21.274371
1029.238727 166.185289 -18.220476
620.445027 7.194824 -12.417636
1029.317852 166.310171 -11.196974
1029.074538 141.753036 -28.112455
1028.978325 226.681346 -19.098767
1029.070636 229.001683 -26.946571
272.075980 288.806597 -34.909961
1029.076318 154.088305 -26.648681
752.099566 45.341290 -7.554748
1029.134247 165.425647 -17.916420
485.640234 42.274956 -4.122100
1028.993193 251.027087 -9.360745
1029.191202 138.906774 -12.100933
-172.317763 179.677719 -2.719888
790.843373 212.671420 -15.948524
1028.987540 207.207378 -15.083185
1029.256612 249.121303 -18.632310
1029.083419 261.565138 -18.628778
1029.186294 141.644426 -26.875536
1029.125480 163.915666 -20.865933
1029.067550 187.903334 -11.437351
715.892541 213.617854 -28.264600
1028.977323 191.701105 -10.560304
1.336390 68.232220 -34.647694
1029.130325 227.908705 -11.363294
633.253940 164.450442 -23.749729
63.840911 189.932337 -34.106094
1028.994581 191.539402 -20.807746
1029.089074 228.582486 -11.134421
1029.032689 139.337093 -11.491075
781.770193 180.922393 -26.381423
372.620258 58.008078 -18.904551
594.599203 8.237740 -20.236243
1029.118109 188.779216 -7.828990
1029.058995 154.448558 -27.720059
431.909000 254.555876 0.000849
479.368078 225.159931 -35.594642
1029.130825 162.909080 -15.085360
1029.287445 139.578995 -9.591735
303.389885 370.681307 -6.803528
1029.138655 191.579951 -20.417899
638.041044 220.576786 -25.731762
659.005723 180.627596 -19.844465
1029.215009 263.230013 -9.648705
433.395458 19.547171 -10.590629
895.069655 188.662644 -7.306884
1029.114565 185.116480 -26.917102
1029.027159 188.449629 -8.741109
1029.088616 227.990706 -18.525192
849.317376 176.254724 -23.835887
678.948067 191.053501 -29.992163
1028.976192 263.358560 -7.415076
905.921685 104.797897 -6.534966
0.231249 157.727887 -34.188544
1029.056723 204.324582 -9.094241
1028.993735 205.652109 -16.980837
1029.000713 266.680231 -14.841078
1029.019230 264.554280 -17.341043
1029.020443 260.195748 -17.082613
511.262243 134.989110 -5.962363
1029.136234 190.187559 -24.030354
-79.500476 389.608827 -30.649251
-0.000753 280.445472 -36.823000
606.355417 184.226181 -5.985217
316.789104 181.599492 -18.102243
536.983956 207.430239 -3.889182
1028.992364 140.724015 -18.226469
967.693050 190.541192 -14.542997
1029.288175 250.532170 -11.240318
1028.982169 140.578835 -8.523235
73.743538 214.115678 -36.894903
-499.039004 188.871339 -25.038939
1028.991480 184.793799 -26.995024
-116.985714 285.210945 -4.187506
1029.263509 251.378450 -21.648380
-405.780853 126.019605 -35.901680
1029.055936 181.494904 -18.997324
311.035266 157.103142 -10.710965
1029.168282 189.604127 -16.148881
-83.991189 175.891224 -26.195337
1029.060040 188.469406 -26.483053
1029.156936 166.796368 -19.504463
1029.062033 251.332961 -17.754174
811.071187 219.428146 -19.365133
1029.058731 251.612451 -21.507725
1029.209896 251.530546 -18.765869
1029.226357 141.141672 -26.962504
1029.035831 258.818714 -21.723534
1029.137454 191.840832 -7.148699
23.955773 174.138030 -33.742816
1028.992617 143.275617 -33.765066
251.391192 305.396700 -3.951882
1029.052570 231.238678 -23.593649
926.009588 239.616763 -26.195573
767.100382 312.176548 -6.131549
1029.019086 186.784368 -8.920433
1029.062089 229.606706 -11.842059
-492.963979 185.870785 -3.807220
91.965675 181.810702 -34.120307
816.535433 187.553591 -29.875112
1029.055737 139.105929 -11.640209
304.182066 122.098832 -31.298995
1029.084872 192.212440 -20.238293
-234.980973 212.382777 -5.087973
13.043112 221.558296 -13.027831
1028.996143 151.715862 -17.273462
1028.994285 231.174448 -6.028807
411.591621 245.039275 -3.410562
578.416323 213.913244 -4.562157
1029.256785 153.702561 -22.613375
1029.274629 189.295571 -19.419725
1028.980026 266.824802 -15.162600
116.181025 178.461791 -33.484169
1029.096721 252.600993 -23.946544
1029.235200 153.879772 -27.568629
-263.558568 212.707312 -36.366169
483.144137 378.240915 -21.664595
1029.273908 151.732683 -17.452964
1029.014351 139.407205 -11.818104
-160.717671 216.084892 -4.444132
1028.984348 184.826144 -32.941579
581.144105 119.931308 -3.615670
1028.980649 249.835231 -21.175183
769.805719 188.114980 -11.281236
1029.188393 230.634547 -28.444128
1029.080799 230.197874 -9.454699
623.639688 214.666175 -30.804337
634.875153 381.183787 -7.480756
539.570602 97.874931 -28.904368
1029.008500 206.564596 -15.792315
541.561623 135.572687 -2.347940
1029.067852 141.603446 -27.818469
1029.069269 165.176413 -18.524279
1029.133526 191.427176 -10.540003
273.050585 204.081865 -3.111294
-57.779884 189.622789 -5.468885
593.885441 6.123092 -25.535577
1029.220334 140.786220 -22.054353
227.777949 199.884698 -37.731462
1029.175277 141.288491 -25.554240
444.620927 76.634681 -30.641742
891.153840 238.511493 -34.754035
622.453218 120.296293 -4.756473
1029.228811 229.056026 -21.423484
1029.263211 229.727649 -8.828450
314.435466 206.808540 -32.086754
1029.255636 140.847097 -10.347196
1029.144526 262.952322 -22.063480
276.831951 172.862321 -34.154072
1029.093018 189.431262 -22.359625
231.120972 239.597935 -2.383474
1029.246426 229.393185 -16.587050
561.813619 169.944110 -24.981538
860.000228 180.252784 -10.951711
1029.146176 187.848913 -9.040993
1029.240783 141.515258 -27.379984
-255.135931 348.746175 -5.956345
1029.025452 191.423095 -15.451683
339.707162 343.469041 -5.885576
-176.071656 219.499857 -26.113136
548.984645 5.092253 -10.140556
1029.083022 262.773429 -19.497108
1029.086616 250.371744 -7.973811
1029.037398 262.781573 -26.167907
1029.137774 227.226450 -10.712844
1029.144133 141.824809 -12.094427
1028.988883 264.995240 -7.280992
1029.072346 230.843770 -24.585391
237.626976 151.217929 -31.631662
611.028908 6.089276 -11.725765
590.064038 166.293575 -22.624961
383.678326 264.356000 -20.014007
-150.454314 111.288102 -26.043093
688.989292 128.728753 -6.077422
790.608234 173.733131 -23.436870
-90.990586 220.984287 -5.511330
1029.220458 185.847851 -11.251454
1029.284457 252.216365 -23.460776
1029.129728 164.701498 -20.667179
859.541358 178.137890 -19.505497
480.225137 298.888948 -12.153377
1028.998408 152.824558 -6.281295
1029.029557 189.622144 -9.059488
1029.097936 262.061277 -16.866182
1029.292222 139.341657 -20.537809
1029.028994 140.404660 -8.938870
631.978794 14.316739 -6.883783
1029.005844 140.255329 -9.204981
-500.765824 193.201542 -15.816184
422.364659 386.234165 -5.736371
1029.087163 227.049554 -11.271518
690.803227 187.866335 -19.214181
792.779998 338.701828 -18.127728
-47.031719 12.300020 -11.915218
1029.284670 252.620977 -25.589771
-313.677442 212.392628 -37.876803
1029.146218 191.360374 -20.366622
1029.105913 190.489401 -8.928432
1028.984297 152.167014 -15.410153
479.843559 218.614586 -34.358678
1028.977495 139.629717 -6.673073
78.539922 323.056850 -34.612982
1029.217982 189.239624 -24.197824
-160.467747 176.974054 -5.627987
738.702026 213.741912 -9.203166
-243.768020 47.058021 -26.293426
1029.331110 152.525238 -20.330589
103.311536 283.779087 -36.116051
1029.187656 251.079710 -22.841616
1029.318670 140.222168 -7.695200
494.490479 127.930460 -5.961144
1029.189180 152.203793 -9.786901
836.325538 185.530389 -10.611964
1029.020630 165.105675 -19.151886
935.521044 177.496680 -6.975676
1029.190473 154.549839 -27.821762
1029.119299 138.490448 -7.169665
-146.132546 381.099353 -12.620679
1028.992859 189.529076 -21.214293
1029.200837 141.506837 -28.207214
1029.122687 189.627835 -12.980992
1029.110689 230.414989 -7.779148
311.832968 150.410838 -10.188068
1029.067094 190.358882 -21.601804
1029.149717 228.931587 -26.989552
290.737331 141.665156 -35.713710
522.726084 343.799957 -6.555904
1029.126705 199.221430 -20.196635
1028.978204 191.616251 -5.973972
1029.154759 191.002642 -23.581673
1029.118563 166.532241 -28.691753
616.478442 228.302209 -4.456196
1029.114841 139.297521 -11.567960
411.558032 245.110662 -3.276845
1029.136270 191.163161 -23.318089
607.276156 7.026523 -10.683473
1029.105731 205.069380 -15.635904
1028.991614 151.329544 -19.248305
-501.059187 193.425251 -16.347047
331.456640 96.200441 -37.022504
1029.120078 187.702432 -9.310782
1029.163817 184.148452 -21.974278
1029.312471 248.234907 -9.873754
462.783032 60.661297 -33.429845
1029.328978 136.843542 -18.881703
828.917194 296.856312 -24.914626
1029.222021 229.310936 -11.098716
1029.172426 140.413768 -21.018412
703.775533 168.164078 -16.919368
1029.118423 167.132526 -29.081801
1029.032436 162.086172 -8.090933
1029.041121 142.217793 -6.243565
1029.236015 251.014534 -17.909152
320.318080 234.382685 -37.185557
504.845981 230.972977 -1.765165
1028.977966 139.590846 -10.513834
1029.013381 155.959542 -27.775785
547.115782 182.474210 -26.257935
321.363995 235.703989 -36.892952
1029.030631 206.195502 -29.210784
612.951228 168.492598 -6.938497
1029.122752 191.332256 -15.803695
1029.022018 152.098673 -9.721617
1028.979961 185.456998 -7.675500
19.838235 84.309667 -31.917484
1029.034602 250.235039 -24.035320
804.325696 180.528705 -12.174424
372.583433 59.776160 -12.460715
-196.172844 219.051531 -6.185561
1029.121923 139.486113 -10.572183
943.585509 118.712875 -6.174090
1029.016906 187.725508 -9.274138
611.338006 220.661422 -27.806582
1029.281845 164.317919 -10.568704
74.262215 267.927078 -37.657064
709.631882 319.530939 -6.016814
91.376545 292.275165 -35.977242
514.106537 5.134388 -8.666478
400.884835 273.474580 -5.355285
1029.080642 139.809185 -8.448109
529.342747 139.900241 -2.404585
1029.190996 251.339016 -24.093351
752.599986 213.886204 -8.253158
-118.847479 213.896394 -19.367306
139.802374 215.394266 -37.197351
1029.091622 188.026010 -8.426024
486.663705 94.915126 -1.491278
1029.233175 246.857364 -23.058501
658.033857 374.904796 -26.101368
1029.182799 226.565878 -26.855878
736.781248 169.844490 -24.413970
1029.001557 265.025473 -24.043119
1029.035127 184.774956 -22.472807
1029.077783 191.459570 -6.368736
1029.147602 265.728428 -24.808093
1028.979811 266.614511 -21.884949
667.489676 376.889768 -23.824477
89.810627 178.309844 -26.304766
378.075462 7.721897 -0.963226
1029.072314 141.391280 -11.738849
642.962902 70.245279 -5.278392
1029.042814 142.222528 -5.287601
722.752648 314.203873 -6.858627
913.895262 214.382126 -17.729370
</DataArray>
</Points>
<PointData>
<DataArray NumberOfComponents='1' type='Int32' Name='ParticleType' format='ascii'>
1
1
1
1
1
1
1
1
1
1
1
1
1
1
1
1
1
1
1
1
1
1
1
1
1
1
1
1
1
1
1
1
1
1
1
1
1
1
1
1
1
1
1
1
1
1
1
1
1
1
1
1
1
1
1
1
1
1
1
1
1
1
1
1
1
1
1
1
1
1
1
1
1
1
1
1
1
1
1
1
1
1
1
1
1
1
1
1
1
1
1
1
1
1
1
1
1
1
1
1
1
1
1
1
1
1
1
1
1
1
1
1
1
1
1
1
1
1
1
1
1
1
1
1
1
1
1
1
1
1
1
1
1
1
1
1
1
1
1
1
1
1
1
1
1
1
1
1
1
1
1
1
1
1
1
1
1
1
1
1
1
1
1
1
1
1
1
1
1
1
1
1
1
1
1
1
1
1
1
1
1
1
1
1
1
1
1
1
1
1
1
1
1
1
1
1
1
1
1
1
1
1
1
1
1
1
1
1
1
1
1
1
1
1
1
1
1
1
1
1
1
1
1
1
1
1
1
1
1
1
1
1
1
1
1
1
1
1
1
1
1
1
1
1
1
1
1
1
1
1
1
1
1
1
1
1
1
1
1
1
1
1
1
1
1
1
1
1
1
1
1
1
1
1
1
1
1
1
1
1
1
1
1
1
1
1
1
1
1
1
1
1
1
1
1
1
1
1
1
1
1
1
1
1
1
1
1
1
1
1
1
1
1
1
1
1
1
1
1
1
1
1
1
1
1
1
1
1
1
1
1
1
1
1
1
1
1
1
1
1
1
1
1
1
1
1
1
1
1
1
1
1
1
1
1
1
1
1
1
1
1
1
1
1
1
1
1
1
1
1
1
1
1
1
1
1
1
1
1
1
1
1
1
1
1
1
1
1
1
1
1
1
1
1
1
1
1
1
1
1
1
1
1
1
1
1
1
1
1
1
1
1
1
1
1
1
1
1
1
1
1
1
1
1
1
1
1
1
1
1
1
1
1
1
1
1
1
1
1
1
1
1
1
1
1
1
1
1
1
1
1
1
1
1
1
1
1
1
1
1
1
1
1
1
1
1
1
1
1
1
1
1
1
1
1
1
1
1
1
1
1
1
1
1
1
1
1
1
1
1
1
1
1
1
1
1
1
1
1
1
</DataArray>
<DataArray NumberOfComponents='1' type='Int32' Name='ParticleID' format='ascii'>
0
1
2
3
4
5
6
7
8
9
10
11
12
13
14
15
16
17
18
19
20
21
22
23
24
25
26
27
28
29
30
31
32
33
34
35
36
37
38
39
40
41
42
43
44
45
46
47
48
49
50
51
52
53
54
55
56
57
58
59
60
61
62
63
64
65
66
67
68
69
70
71
72
73
74
75
76
77
78
79
80
81
82
83
84
85
86
87
88
89
90
91
92
93
94
95
96
97
98
99
100
101
102
103
104
105
106
107
108
109
110
111
112
113
114
115
116
117
118
119
120
121
122
123
124
125
126
127
128
129
130
131
132
133
134
135
136
137
138
139
140
141
142
143
144
145
146
147
148
149
150
151
152
153
154
155
156
157
158
159
160
161
162
163
164
165
166
167
168
169
170
171
172
173
174
175
176
177
178
179
180
181
182
183
184
185
186
187
188
189
190
191
192
193
194
195
196
197
198
199
200
201
202
203
204
205
206
207
208
209
210
211
212
213
214
215
216
217
218
219
220
221
222
223
224
225
226
227
228
229
230
231
232
233
234
235
236
237
238
239
240
241
242
243
244
245
246
247
248
249
250
251
252
253
254
255
256
257
258
259
260
261
262
263
264
265
266
267
268
269
270
271
272
273
274
275
276
277
278
279
280
281
282
283
284
285
286
287
288
289
290
291
292
293
294
295
296
297
298
299
300
301
302
303
304
305
306
307
308
309
310
311
312
313
314
315
316
317
318
319
320
321
322
323
324
325
326
327
328
329
330
331
332
333
334
335
336
337
338
339
340
341
342
343
344
345
346
347
348
349
350
351
352
353
354
355
356
357
358
359
360
361
362
363
364
365
366
367
368
369
370
371
372
373
374
375
376
377
378
379
380
381
382
383
384
385
386
387
388
389
390
391
392
393
394
395
396
397
398
399
400
401
402
403
404
405
406
407
408
409
410
411
412
413
414
415
416
417
418
419
420
421
422
423
424
425
426
427
428
429
430
431
432
433
434
435
436
437
438
439
440
441
442
443
444
445
446
447
448
449
450
451
452
453
454
455
456
457
458
459
460
461
462
463
464
465
466
467
468
469
470
471
472
473
474
475
476
477
478
479
480
481
482
483
484
485
486
487
488
489
490
491
492
493
494
495
496
497
498
499
</DataArray>
<DataArray NumberOfComponents='1' type='Int8' Name='IsActive' format='ascii'>
1
0
1
1
0
1
0
1
1
1
0
1
1
1
1
0
1
0
1
0
1
1
0
1
0
0
0
0
1
1
1
1
0
0
0
1
0
0
1
0
1
1
1
0
1
1
1
1
0
1
0
1
0
1
1
0
1
1
0
1
1
0
1
1
0
1
1
0
0
0
0
1
0
0
1
1
1
0
1
1
1
0
0
0
0
1
0
0
0
0
1
0
0
0
0
1
1
1
0
0
0
1
0
1
1
0
0
0
1
0
0
1
1
0
0
0
1
0
1
0
1
1
0
0
1
1
0
1
0
0
1
1
0
0
0
0
0
1
0
1
0
0
1
0
0
1
1
0
0
0
0
1
0
0
0
1
0
1
1
1
1
1
0
0
1
1
0
1
1
1
1
0
0
1
0
1
1
0
1
0
0
0
0
0
1
0
0
1
1
1
0
0
0
1
1
0
0
1
0
0
0
0
1
0
1
0
1
0
0
1
0
0
0
0
0
0
0
1
0
1
0
1
1
0
0
0
1
0
1
0
0
0
1
0
0
1
0
1
1
0
1
1
0
0
0
1
1
0
1
1
0
0
0
0
0
1
0
1
1
1
1
1
0
1
0
0
1
1
0
1
0
1
0
1
0
1
0
0
0
1
0
0
0
0
0
1
0
1
0
1
1
0
0
1
1
1
0
1
0
1
1
0
0
0
1
0
0
0
1
0
0
1
1
0
0
1
0
1
0
1
0
0
1
1
1
0
1
0
0
0
1
1
1
0
1
0
1
1
1
0
0
1
0
0
1
0
1
0
1
1
0
0
1
0
1
1
1
0
0
0
0
0
0
0
1
1
1
1
1
1
1
1
0
0
0
1
1
0
0
0
0
0
1
0
1
0
0
1
1
1
0
1
0
0
0
1
0
1
0
1
1
1
0
1
0
0
1
0
1
0
1
0
0
1
0
0
0
0
1
0
0
1
1
0
0
0
0
1
0
0
0
1
0
0
1
1
0
0
0
1
0
1
0
0
1
0
0
0
0
1
1
0
0
1
1
0
1
0
0
0
1
0
1
0
1
0
1
0
1
0
1
1
1
1
0
0
1
0
1
1
1
0
1
0
1
0
1
0
0
0
0
0
1
1
0
0
1
0
1
1
</DataArray>
<DataArray NumberOfComponents='1' type='Int32' Name='ParticleTetID' format='ascii'>
58088
-61515
7814
75350
-58962
8804
-66558
57475
58088
23474
-66561
98736
24247
75764
62750
-64917
67465
-68099
4017
-66554
67252
53532
-58961
81758
-64916
-70586
-61515
-61512
35044
57587
61204
87720
-68099
-72204
-112396
68835
-66561
-66555
52590
-66557
58699
76248
32632
-66560
62936
9502
46455
71735
-64920
63147
-64914
66908
-61515
36467
19262
-61512
52004
7376
-64917
63652
33675
-64914
63347
67036
-72213
28403
78675
-64917
-66552
-66551
-66552
7305
-112396
-64916
64892
59719
69098
-58965
72689
72960
60823
-72207
-64920
-66554
-58961
78265
-68099
-61515
-66557
-66558
32055
-64917
-72207
-66561
-61515
34958
27470
72901
-64919
-66548
-66561
42773
-58962
3808
5067
-58955
-61518
-59786
6361
-66554
-66554
2273
29720
-61518
-70584
-58965
174918
-64914
7886
-61518
45951
72650
-64917
-66554
63005
27970
-146594
62681
-58962
-66560
47234
7489
-64914
-66588
-61518
-59791
-61512
78506
-112396
7489
-72210
-58965
66851
-61512
-58955
68887
61389
-58955
-59791
-156163
-66588
56863
-61515
-58955
-68105
32208
-66551
5396
25526
27974
62969
29598
-64916
-58958
69660
58398
-64914
45154
69394
61367
404
-66560
-58958
62912
-61511
68836
10690
-61514
63059
-58958
-72213
-64919
-61512
-68099
98736
-68105
-64919
60159
7297
5455
-58962
-61518
-59783
62942
29792
-66558
-59786
66892
-59783
-66560
-58958
-58965
29753
-66557
63471
-59786
52670
-64914
-66551
9379
-63044
-72207
-64916
-68102
-66561
-59788
-61511
63032
-61512
28349
-58955
57124
29177
-61518
-58955
-66551
65332
-84717
61371
-61512
-66561
-136563
52901
-59785
-66551
33267
-61518
62686
63151
-68099
86369
71211
-61521
-61512
-58958
68913
63140
-68100
59887
36754
-72204
-72207
-68103
-68102
-64917
74287
-61518
3505
5614
65899
43694
61597
-66554
61658
-64913
-66551
34684
19217
-61521
17012
-64920
2213
-61514
45167
-61515
20116
-61517
-59786
-64916
62953
-64920
-64916
-66561
-64920
-61512
30977
-66564
29666
-58961
57574
71606
-61512
-58955
19262
99563
63068
-66551
46093
-61518
7472
32296
-66555
-58952
-126563
75044
-66558
-61514
-68103
27087
-64919
-66561
9502
51777
-66555
-66551
7508
-61520
73369
-64920
63077
-58965
-58955
61214
69987
79140
-72207
60068
-66560
-59786
-61512
36758
18272
61373
-66557
36989
-66557
54104
79845
72668
-58962
-58955
37417
-66551
-68105
43539
-61518
32006
-58958
58673
59423
-61512
-66561
7849
-61515
33320
7535
61961
-68102
-64914
-68105
-58955
-66551
-68100
-58961
95329
65831
68519
82198
6832
68492
76727
22861
-61511
-64920
-59788
59425
52348
-66548
-61512
-68102
-66557
-66551
65649
-66551
2276
-112399
-58955
65311
63404
5620
-64919
7469
-61518
-61512
-66555
52900
-66552
33783
-61518
7310
62933
9712
-66558
37383
-64920
-66551
51572
-66552
67037
-59786
59457
-66561
-66588
7870
-61518
-66560
-61511
-58956
43709
-61518
-58965
96143
68185
-72210
-61509
-61518
-59791
57961
-66551
-126559
-61518
65831
-72207
-66554
2276
25109
-61512
-61518
-64913
51981
-66591
62003
-58955
-66557
59065
-59791
-59782
-66548
-64916
32057
64765
-66551
-66561
78796
32057
-72213
74595
-61515
-66552
-61512
40207
-64919
65344
-84632
7490
-66551
56414
-61512
68052
-59783
30003
64243
37095
69393
-127033
-66551
60066
-64919
62969
5407
91329
-61512
54072
-64919
69976
-58965
71416
-68105
-61518
-61508
-68105
-68106
63299
98736
-153844
-66551
60823
-66548
64263
72512
</DataArray>
<DataArray NumberOfComponents='3' type='Float32' Name='vels' format='ascii'>
0.176698 0.004005 0.000092
2.941750 0.743093 0.251364
0.008767 0.002568 -0.000538
0.049308 -0.002776 0.000066
4.011166 -0.808442 0.007605
0.434677 -0.058228 -0.000605
5.291425 0.658114 0.015048
1.876372 -0.183146 0.006305
0.405238 -0.006362 0.002305
0.682267 -0.150001 -0.000573
4.043204 0.516567 -0.062035
0.022066 -0.013341 0.014632
0.595918 -0.036419 0.001050
0.023207 0.011014 -0.001015
0.052052 0.000163 0.000226
4.781214 -0.633258 0.223552
0.135021 -0.013658 0.005990
1.841632 -0.359408 0.096556
0.944679 0.010741 0.000233
4.618366 0.202199 0.374453
3.038794 0.339097 0.031956
2.765104 0.499711 -0.232526
3.564954 -0.948543 -0.100939
-0.002074 0.001208 0.000907
5.081494 -0.728568 0.061442
2.709453 -0.571234 0.037044
2.890267 0.733475 0.271122
2.291721 0.555347 0.251364
0.635939 -0.605006 -0.000204
2.352919 -0.507861 -0.000692
0.342725 0.000370 0.000708
0.003740 -0.019907 -0.004291
3.213363 -0.761119 -0.003224
1.656845 -0.012767 0.231690
30.832558 8.406263 0.242404
0.945118 0.006527 0.001744
3.361597 0.485264 0.057820
5.072144 0.616756 0.203979
0.140815 0.450397 0.008566
4.822554 0.159554 -0.071552
2.058974 0.543908 0.002045
0.483683 0.020282 -0.000689
0.883931 -2.482471 0.002622
3.522981 0.454183 -0.022000
0.073192 -0.000078 0.000073
0.023030 -0.000074 -0.000009
1.686207 1.168111 0.004247
0.063802 -0.000006 -0.000145
5.038774 -0.652624 0.013047
0.363795 0.001760 0.001883
2.926561 -0.297746 0.581025
0.231511 -0.018925 -0.000316
2.831417 0.656188 0.157502
0.602347 0.505293 0.000477
-0.001690 0.000556 -0.000336
2.459462 0.587685 0.168515
0.218025 0.238522 0.000124
0.338321 -0.001060 0.002231
4.325011 -0.485807 0.474073
0.636634 0.178834 0.000036
3.420668 0.672186 -0.001337
3.009809 -0.323029 0.523657
1.114699 -0.248435 0.003058
1.880412 0.031365 0.000026
1.625300 0.032475 -0.102624
1.007681 -0.370076 -0.000528
0.439420 0.557396 0.000146
4.340364 -0.231916 0.365021
3.114425 0.129711 0.500337
4.121013 0.480241 0.104173
3.314428 0.340714 0.441299
0.705180 -0.006783 0.002268
46.675339 14.517866 -0.076229
4.966831 -0.741021 0.103249
0.197196 0.003655 0.000946
0.167563 0.170938 -0.011473
1.547025 -0.021377 -0.003859
4.058145 -0.762731 -0.344492
0.076889 -0.000057 -0.000200
0.955478 0.012212 0.004144
1.034946 0.180404 -0.002124
2.447300 0.404613 0.136695
4.955756 -0.666599 0.026369
5.270291 0.597518 0.093265
3.790543 -0.755850 0.004429
1.068190 0.357031 -0.000445
3.198346 -0.576469 0.091015
2.891380 0.658313 0.072510
4.708169 0.714293 0.041555
5.286538 0.662013 0.016323
0.908888 0.482670 -0.002418
4.335292 -0.493674 0.469468
2.376679 0.415278 0.303110
3.978817 0.514039 -0.035953
2.925429 0.736889 0.253986
0.491357 0.047674 0.000793
0.078908 -0.021764 0.003308
1.533071 -0.143068 0.000171
4.657912 -0.665986 -0.017331
0.402313 0.016930 0.069481
4.122142 0.520750 -0.092827
1.621996 -0.050440 -0.009071
4.068510 -0.838672 0.002245
-0.001759 -0.000012 -0.000930
0.066457 0.010771 0.001176
3.529941 -0.711878 0.030954
2.701473 0.675651 0.006233
5.068028 0.739679 0.098900
0.097820 0.015705 -0.000168
5.282705 0.607003 0.090999
4.672356 0.220515 0.340548
0.001845 -0.000681 0.001188
0.288548 0.229565 0.000727
2.719856 0.689432 0.014472
1.875758 -0.371275 0.170103
3.526443 -0.813141 -0.314200
7.180135 -1.468308 -0.090406
2.977139 -0.317598 0.549789
0.154284 0.044987 -0.001476
2.856396 0.655576 -0.021302
0.426148 0.597889 -0.000756
1.359288 0.082495 -0.000038
5.097804 -0.739710 -0.004191
5.187976 0.534039 0.131804
0.066657 0.000099 0.000178
-0.003603 -0.006578 -0.000088
0.063052 -0.112684 0.126129
0.009049 0.000021 0.000195
3.941319 -0.939718 0.019078
3.094111 0.466580 0.051646
2.978404 -1.118938 -0.012631
0.289003 0.001747 0.000985
2.947628 -0.317004 0.559127
3.315421 0.229466 0.303735
3.114699 0.812712 -0.006021
3.981705 0.784788 -0.179278
2.397503 0.576482 0.045044
2.037119 -0.221378 -0.001233
46.605008 17.425592 -0.121316
0.709859 0.010051 0.001421
2.453705 0.036037 -0.002453
3.273935 -0.703619 -0.146819
0.550712 0.097543 0.000050
2.267504 0.537684 0.170558
3.031390 -0.650702 0.168210
1.340140 -0.352448 0.002642
0.073827 0.000077 -0.001023
3.485382 -0.705401 0.047642
4.244217 0.718171 -0.088138
0.078912 -0.035162 -0.038296
3.309975 0.272851 0.268077
1.063169 -0.220813 0.004991
3.143853 0.750221 0.009430
3.065246 -0.673178 0.198509
4.241233 -0.744797 0.007929
1.105068 0.338581 0.000428
3.991307 0.425104 0.155119
0.031767 0.000027 0.000095
0.306512 -0.534730 -0.031528
0.177816 0.087146 -0.000187
0.203456 -0.000245 -0.000604
0.909882 0.663119 0.000444
4.864729 -0.743999 0.144699
4.023324 -0.834694 0.046985
0.060523 0.137012 0.002309
0.377814 -0.460727 -0.057345
2.983754 -0.330680 0.536378
-0.000598 -0.003610 -0.001272
0.058034 0.000202 -0.000288
0.187097 0.001336 0.000156
0.012739 0.000028 0.000038
2.912069 0.446903 0.058844
4.195891 -0.823559 0.007726
0.108775 -0.000631 0.000873
3.421469 0.801853 0.232091
0.984380 0.008225 0.002502
0.002073 0.000336 0.000137
3.917611 0.961390 0.066384
0.065793 0.000086 0.001284
3.998002 -0.839101 0.052347
2.110943 0.365026 -0.216448
4.558290 -0.718325 -0.153658
2.517882 0.602668 0.087560
2.602964 -0.618944 0.038887
-0.003020 0.002396 -0.000132
3.746715 -0.624846 0.010220
4.537418 -0.639668 -0.001990
3.015822 -0.751732 0.005256
0.011884 -0.000014 -0.000818
0.834476 0.137965 0.001278
4.022468 -0.876011 0.007542
3.114020 0.835475 0.004567
4.032579 0.575637 0.282121
0.003176 -0.000009 -0.000040
0.451800 0.344362 0.000108
5.273003 0.663612 0.018242
5.040750 0.742126 0.111195
0.468851 0.059777 0.000872
4.238118 0.605920 0.212747