<VTKFile type='UnstructuredGrid' version='1.0' byte_order='LittleEndian' header_type='UInt64'>
<UnstructuredGrid>
<Piece NumberOfCells='500' NumberOfPoints='500'>
<Points>
<DataArray NumberOfComponents='3' type='Float32' Name='Position' format='ascii'>
-324.975828 225.958310 -4.849939
-201.518624 170.266111 -21.488158
-476.993267 283.006183 -6.183935
-321.628106 254.299722 -10.096819
-146.095067 266.937772 -22.743699
-416.729464 142.764578 -2.058513
-169.810621 145.009254 -27.994278
-294.180255 295.215395 -7.259986
-324.160558 225.414890 -5.052662
-381.166808 243.718952 -4.643449
-219.936660 141.460526 -32.447630
-447.099916 102.994011 -30.008772
-413.699515 219.132154 -5.941347
-347.658380 155.620395 -3.936175
-225.119090 246.165117 -6.804940
-115.858911 352.057065 -16.270753
-191.057063 157.294296 -9.275445
-154.992546 361.082188 -14.980506
-392.140126 276.203496 -6.269486
-145.171609 52.847714 -21.381394
-119.689922 140.313314 -16.268679
-350.638826 92.967874 -4.176835
-136.020232 259.634664 -26.017009
-250.059124 350.705106 -15.656639
-119.563589 349.019754 -19.350140
-116.297102 259.695281 -20.915771
-413.733413 211.347413 -24.021002
-162.492990 159.594877 -14.504196
-356.667916 294.871301 -37.488488
-249.929860 335.393727 -7.068668
-111.651742 245.230972 -15.922782
-382.760734 167.129194 -2.583281
-216.261769 350.906434 -11.447348
-171.410281 241.289821 -11.525914
-475.116389 280.432483 -19.873288
-218.670353 228.267656 -9.021424
-161.195254 143.545425 -27.567892
-150.061866 59.450636 -20.185067
-238.225374 224.092436 -30.891880
-187.742640 59.449377 -28.205203
-259.418725 71.488438 -7.100005
-327.598413 160.187227 -3.915947
-364.145287 163.066616 -36.888088
-343.644010 82.034267 -32.497690
-112.153767 242.627626 -21.492799
-433.921566 217.824054 -37.457698
-361.975332 99.166984 -35.196907
-118.613692 253.839685 -14.370284
-126.458081 362.475247 -22.794326
-179.294916 238.197970 -9.875567
-145.471417 339.543737 -13.488015
-329.077048 233.998047 -6.426049
-176.214237 164.592521 -19.059898
-366.360608 294.701397 -37.352660
-501.876113 192.804055 -3.297730
-265.111568 169.596624 -7.980790
-336.591957 301.954586 -5.683727
-487.082833 182.819340 -32.901843
-114.693453 358.695430 -20.831115
-240.247762 55.000483 -14.390361
-377.727597 159.413295 -33.930273
-162.125014 332.597778 -13.503392
-269.190124 342.828033 -9.969336
-177.002858 232.977531 -10.710177
-195.074903 241.228571 -31.715462
-386.611980 236.043608 -37.427365
-334.827835 172.135548 -32.659816
-117.999159 352.922102 -19.758118
-215.672619 67.834186 -9.096062
-155.499136 54.117005 -15.314080
-287.368575 101.344165 -14.195610
-453.111145 183.365242 -35.346864
-223.424274 353.389828 -21.754873
-142.434469 336.488504 -25.062449
-352.034353 228.616577 -2.915684
-351.840759 221.418981 -32.766781
-173.290500 242.093937 -29.637431
-173.492303 252.430479 -28.413304
-126.410096 241.478176 -15.229866
-156.754985 231.182659 -15.879895
-391.996035 151.454892 -6.556243
-133.566219 235.127630 -16.233440
-162.344318 350.532588 -28.087641
-174.742340 69.167450 -20.789260
-154.309826 265.809459 -20.458672
-361.560346 156.631002 -3.570134
-267.072558 338.533311 -11.771300
-187.683789 166.850366 -18.604433
-158.027833 45.133836 -23.235808
-148.761303 141.540354 -27.178103
-363.710998 223.078118 -35.385521
-117.394694 352.764939 -20.563185
-118.237518 238.629767 -18.077030
-218.719876 141.267908 -32.142422
-202.984530 170.670093 -22.732778
-403.026481 223.007584 -2.572763
-418.833685 218.232515 -2.348431
-307.916497 255.282967 -9.981524
-217.903852 323.055712 -30.928180
-221.685857 77.051099 -9.525186
-209.477843 142.065032 -31.707836
-460.918702 289.843375 -12.473882
-326.246106 286.982381 -23.564613
-432.965511 177.015207 -26.670880
-411.472585 247.549771 -18.767159
-167.155326 254.846875 -12.987361
-387.714926 180.339937 -24.725330
-122.659675 135.471344 -20.147990
-400.936420 243.847368 -19.295256
-186.830047 45.630277 -21.135398
-158.989796 60.694209 -24.529885
-502.695106 192.163889 -10.471077
-345.934720 310.224404 -3.386445
-329.744390 179.525690 -23.507761
-222.236746 247.692754 -7.097437
-209.030915 253.241337 -31.911294
-159.267724 229.201006 -24.446368
-172.005079 337.549663 -13.277247
-482.019862 284.250158 -6.041962
-365.568116 211.091827 -27.526439
-395.844569 94.222014 -36.208107
-335.620352 165.573986 -6.726434
-127.193914 361.580127 -15.784039
-144.293722 41.360148 -20.057690
-171.843691 242.804856 -10.503473
-360.154227 303.688228 -33.938032
-303.258925 141.542895 -17.991889
-182.124952 239.062199 -10.077524
-279.377834 256.552090 -23.818163
-239.635251 75.126049 -32.384224
-375.194308 113.650853 -4.687184
-465.922862 213.193702 -5.033520
-135.017441 343.230450 -13.946306
-147.123883 43.818665 -16.259583
-268.139370 175.559304 -27.220189
-199.172008 154.053567 -30.883819
-279.574219 174.547605 -8.921722
-163.794618 238.161268 -19.964431
-255.980613 347.052963 -23.311085
-476.639269 211.109377 -3.537484
-200.347238 223.464379 -20.273030
-204.722771 252.566574 -30.781377
-250.342931 165.774155 -32.368440
-123.475729 153.786713 -17.462162
-125.905704 261.294923 -14.894933
-243.973414 346.581751 -11.099919
-230.870757 46.858830 -23.521998
-178.565127 260.374991 -11.857943
-208.326461 153.724555 -31.452628
-225.047875 159.532706 -32.714472
-206.674602 65.784176 -13.231371
-206.208088 333.193128 -8.495313
-119.437151 145.015435 -18.917205
-168.117825 269.108880 -17.308157
-211.337281 351.398812 -25.378713
-496.016095 273.980150 -13.317852
-247.858893 53.582961 -14.834562
-453.191286 180.649490 -32.725755
-400.338025 217.638738 -2.741771
-375.260263 218.693202 -5.206930
-165.368374 242.702909 -11.712707
-475.826180 279.378174 -13.332567
-178.843198 325.718491 -25.147276
-373.769537 273.708553 -21.860413
-352.664183 99.614925 -6.425079
-168.015029 243.117202 -11.961134
-201.522096 320.353274 -11.653162
-187.925031 224.208382 -24.323844
-247.839458 56.941235 -14.095714
-289.225306 63.435944 -13.952049
-481.854341 284.393953 -19.671018
-250.447665 89.080830 -29.052793
-123.798967 261.810792 -19.053839
-344.179481 235.147917 -6.562279
-242.039230 175.661526 -14.961122
-173.497568 234.664117 -12.087919
-521.170606 274.170107 -37.164303
-204.392700 222.866850 -20.394714
-162.763690 247.702382 -11.104210
-115.028129 258.794881 -22.088474
-139.222784 235.906153 -24.376403
-218.884452 325.941959 -32.093012
-241.829424 162.808625 -7.847219
-197.292828 350.796135 -13.620499
-377.841437 87.412883 -27.198726
-141.923601 355.872972 -25.793845
-156.165680 352.868205 -27.571973
-401.990170 308.495745 -17.749424
-388.741673 177.201420 -19.942224
-410.015105 266.836588 -2.827283
-325.491823 289.014991 -24.796563
-223.390960 166.291042 -29.457649
-131.143932 135.488011 -16.060561
-155.812532 243.560472 -27.535314
-394.737155 293.049446 -2.738516
-167.441572 140.813646 -27.872971
-115.632621 142.028609 -20.305458
-211.175821 48.215367 -15.451400
-198.948966 132.979490 -14.127062
-243.077100 76.453824 -32.841085
-125.202885 260.241130 -23.875048
-210.288002 259.989314 -27.948480
-351.569084 305.427475 -34.855413
-206.745896 143.486605 -30.595795
-254.333735 56.397342 -10.590754
-112.512856 141.389900 -21.029606
-365.964114 108.375558 -4.798892
-309.127461 297.757999 -12.690455
-142.456819 53.100531 -17.259916
-479.740067 183.404346 -2.370350
-117.616936 242.935858 -19.035728
-132.123180 243.217296 -19.999087
-178.366482 329.385801 -19.693568
-114.361329 358.656339 -20.519326
-231.844963 66.073437 -31.985211
-127.094703 138.533607 -23.866138
-232.336296 173.518747 -14.962185
-176.550173 244.031058 -29.574714
-178.915236 156.537572 -12.801897
-413.073768 96.287436 -34.558604
-149.671167 265.671535 -15.343993
-446.731883 182.207084 -30.066182
-395.228498 114.247611 -34.448216
-195.771020 221.619310 -22.715416
-112.884900 258.699845 -16.978353
-346.554102 82.933710 -19.721256
-209.724900 229.649365 -28.637808
-402.177545 216.849988 -36.158732
-243.491314 50.907750 -24.052434
-291.904807 176.563123 -8.406076
-221.450618 134.491263 -29.704523
-362.879723 237.189698 -3.294189
-323.264434 223.998664 -35.968821
-188.347899 130.426557 -18.314536
-402.780645 98.965821 -13.325795
-376.639692 312.364943 -6.907163
-218.412144 172.435469 -24.008424
-353.014469 222.711054 -33.102780
-314.790040 219.809753 -18.815766
-228.498512 343.530569 -8.518463
-355.620133 98.660811 -34.598929
-230.513613 234.364775 -7.514921
-250.728073 173.326887 -28.953694
-212.124954 168.518216 -11.003541
-124.478975 262.903937 -22.078743
-428.358718 212.105408 -29.784835
-206.250643 234.943127 -31.552406
-244.235708 349.258353 -14.430270
-304.738685 85.122864 -6.737683
-385.609409 150.053888 -35.176285
-190.359107 235.642653 -9.747092
-110.024008 243.780657 -17.216429
-165.625583 365.014637 -17.750774
-205.756470 354.909457 -21.770697
-117.695599 357.050259 -18.623794
-392.717798 177.235350 -4.720233
-326.189406 216.242115 -24.172512
-494.297407 282.983754 -32.037101
-397.100090 275.980215 -37.097841
-279.258258 231.010784 -6.830116
-164.621088 226.575949 -17.813557
-354.227098 227.609051 -3.432885
-154.071930 61.510300 -21.747562
-118.381968 252.309977 -15.450436
-133.681944 338.409591 -15.991992
-151.649129 57.825549 -16.465005
-394.953806 175.388847 -36.946112
-498.271872 188.079307 -23.660841
-213.134102 165.065010 -28.014056
-399.986106 244.901666 -3.686602
-136.163933 346.922558 -25.444500
-415.505976 134.014349 -36.605422
-140.523735 158.208718 -24.805945
-334.956471 175.814848 -12.716992
-147.175350 161.152962 -22.223678
-388.756325 177.146588 -26.618809
-247.909212 172.383468 -27.916919
-143.511345 132.116842 -22.818837
-119.902518 357.767274 -23.043583
-148.113556 252.666938 -26.959932
-143.564186 340.650478 -26.369958
-136.797492 340.740969 -25.108948
-238.312704 72.615226 -32.162494
-124.601761 361.417336 -23.056340
-256.591313 172.521021 -9.574316
-409.300442 148.969237 -34.853661
-192.894365 63.938656 -28.424124
-391.965133 305.309567 -4.150844
-229.553723 313.044780 -27.370957
-324.239114 248.778179 -32.470048
-214.931945 328.591809 -7.908950
-150.545584 154.445246 -13.833354
-106.272475 250.129585 -19.269183
-503.061072 194.129017 -6.124236
-471.762227 121.508137 -33.559735
-206.866561 236.728629 -31.961303
-142.196052 51.400691 -16.832183
-369.667920 149.266420 -32.571364
-251.249259 215.846936 -21.747220
-487.670113 211.243862 -4.586060
-427.066512 215.606511 -12.568329
-305.479450 100.380919 -24.441452
-266.657229 302.555876 -8.039572
-106.616370 252.340156 -17.746990
-247.983952 232.732062 -6.822158
-200.922923 149.371610 -31.900773
-198.060541 170.653479 -23.835261
-366.578715 310.556354 -19.999508
-396.057059 114.888377 -33.852118
-167.693530 353.514517 -28.053471
-189.901630 143.822653 -29.818734
-472.225672 211.802640 -36.557961
-366.421132 307.673743 -26.667442
-171.409656 68.694291 -18.719296
-144.987310 49.870418 -16.268682
-459.333644 213.843021 -4.075725
-220.757167 161.623966 -31.839157
-349.370727 164.097979 -3.702597
-114.554703 359.577188 -21.203671
-155.894622 235.560454 -13.629608
-205.060004 249.988934 -32.245231
-165.497951 259.379698 -11.728886
-224.537681 230.710578 -32.391668
-269.836202 341.856323 -9.881625
-428.912322 177.810997 -35.759755
-111.709670 244.872651 -16.474765
-355.851150 172.804223 -3.526593
-250.154499 62.133053 -32.592169
-123.939750 136.658483 -21.143181
-225.108751 166.448010 -12.429823
-438.059212 216.593446 -2.903411
-413.455537 178.163934 -5.208675
-270.101208 61.412845 -31.141702
-178.630010 61.498331 -27.349650
-384.269935 222.247899 -37.666798
-179.750807 58.753617 -27.396749
-344.520081 218.389495 -31.632391
-225.325068 235.467572 -32.968465
-329.106470 158.340821 -5.953735
-126.343517 260.052770 -23.653463
-180.252126 260.967278 -10.896390
-414.612700 217.296108 -32.868719
-200.044304 62.869601 -12.964105
-262.763177 342.359442 -27.798809
-398.743415 111.797548 -34.189449
-259.297500 172.624862 -27.395514
-413.309275 288.872059 -2.407370
-320.214405 248.029368 -19.655024
-257.796440 218.655626 -28.637862
-257.467515 221.599256 -8.743830
-164.045846 152.768747 -13.337705
-231.836461 70.112268 -31.728029
-500.892293 277.876807 -6.611297
-331.386195 179.013578 -17.512110
-319.113322 312.737721 -5.955749
-449.508944 218.287629 -26.563133
-296.466724 65.227120 -8.572705
-125.147081 360.320265 -18.514766
-213.868133 326.383852 -8.283792
-224.570888 335.359765 -31.863756
-118.476524 263.572244 -20.272427
-140.667065 50.929486 -18.153858
-232.519060 345.714417 -9.118798
-138.295934 264.348248 -25.877312
-451.021083 109.381685 -32.047731
-257.458502 54.187928 -14.535950
-460.801742 209.563154 -28.224305
-369.291110 240.967660 -36.046092
-350.288195 143.185527 -26.595903
-216.412048 147.753514 -7.604599
-428.733644 211.472935 -29.618854
-412.234054 216.917208 -5.338736
-181.975334 165.808113 -14.006154
-221.076852 324.922039 -32.885840
-123.089410 146.176781 -22.247627
-433.797634 209.797033 -22.526519
-174.818027 343.588823 -11.509602
-319.385069 91.757270 -6.705255
-240.264200 171.556628 -10.643932
-127.093095 363.460032 -17.520342
-149.320915 51.514417 -23.436790
-199.493769 64.265406 -10.968487
-308.258764 72.835892 -7.799952
-197.820123 67.834716 -12.708885
-502.200433 192.880508 -17.220335
-167.973169 362.213239 -25.243535
-191.397679 267.158205 -15.044543
-115.005564 239.948677 -18.206658
-182.140472 362.380196 -24.345885
-440.355357 101.400075 -11.322393
-195.323717 337.731472 -29.970652
-484.444142 211.755532 -37.810750
-182.323745 169.603101 -22.991197
-332.389060 179.591991 -10.567418
-224.783903 79.565990 -18.983636
-371.953151 226.347832 -34.324356
-239.355963 73.590964 -7.977640
-398.294384 309.336337 -35.221383
-316.723372 172.280639 -26.221884
-459.456389 179.060058 -5.730191
-130.272170 245.092453 -13.567862
-492.064656 119.934959 -26.470892
-317.866360 105.795910 -24.025510
-392.767279 307.715272 -35.818641
-153.275308 354.225573 -27.257661
-228.399558 69.334822 -8.449828
-230.565727 230.497972 -8.066004
-149.309830 60.352689 -16.667771
-192.384745 231.918926 -10.102558
-119.795684 149.599736 -20.843214
-341.836747 179.741005 -7.554023
-222.538164 136.981454 -31.144941
-345.955963 83.548507 -13.000374
-489.078990 282.671154 -13.086532
-142.837568 153.901516 -25.864742
-398.411295 100.334344 -33.254979
-227.360971 173.292992 -17.106408
-325.950085 290.108517 -11.574262
-413.412539 212.109160 -11.091506
-142.726731 153.631915 -25.832603
-265.846824 256.828032 -30.603501
-355.500764 95.404602 -35.740070
-239.865630 331.053572 -7.112279
-130.797912 237.620906 -24.965404
-291.787609 176.647946 -9.085923
-256.966732 219.241672 -29.782273
-166.488597 155.965571 -27.916120
-337.959248 229.705161 -5.957438
-157.694272 48.894617 -14.887059
-117.964907 257.459654 -22.146545
-333.644228 181.540796 -28.504606
-266.385065 58.309939 -10.464722
-110.702343 254.271042 -16.274411
-325.532710 141.114611 -23.810038
-502.169335 194.029041 -18.254760
-465.202164 219.624580 -36.175985
-215.851414 168.179258 -10.638004
-216.611988 170.814517 -24.576554
-132.112067 336.823801 -17.545909
-400.241685 175.405497 -35.528827
-139.706706 47.931746 -20.804617
-345.698320 288.312296 -31.980340
-112.198969 248.449505 -19.539134
-159.317266 60.528254 -24.840723
-462.932295 184.625671 -22.446872
-200.244837 154.701953 -31.169878
-210.938473 137.148279 -9.311424
-212.959665 71.220052 -9.265145
-116.366810 357.168478 -22.228547
-380.652723 225.753442 -36.958137
-378.043562 233.848503 -2.953806
-196.177323 60.607395 -11.486862
-217.713450 148.603420 -32.853964
-374.360023 183.450023 -27.395239
-429.666353 230.007300 -36.853316
-196.310900 240.340419 -31.838461
-327.795284 166.165205 -6.277986
-234.500967 170.289070 -18.737946
-153.906797 59.700938 -15.946545
-305.628126 173.816770 -7.304918
-451.903076 109.127309 -32.149137
-216.615583 325.769547 -31.573049
-204.426389 228.911415 -12.459784
-348.015833 219.659857 -35.699090
-433.502060 217.502702 -5.601626
-222.627822 52.515528 -14.534943
-255.983896 68.913093 -7.292482
-161.737091 158.300861 -14.406076
-359.088274 233.485200 -35.013680
-187.670398 136.097110 -11.474340
-361.623489 293.966312 -37.662097
-246.689660 318.272748 -6.881025
-389.643931 306.120794 -35.927398
-310.204252 67.389873 -8.389523
-249.759256 305.070806 -24.185603
-214.507550 68.683956 -9.310301
-353.013452 171.880873 -3.519668
-232.503169 327.083101 -32.695773
-182.855625 233.319417 -10.099191
-452.220838 212.989051 -19.255193
-411.556310 297.311487 -37.373193
-198.414498 159.249048 -8.970593
-389.008351 175.424070 -3.018306
-162.391253 337.430836 -27.436955
-235.547403 345.197120 -30.457066
-137.842725 262.297854 -25.525979
-431.692961 211.911576 -29.763668
-228.890318 346.018949 -30.237395
-409.423199 183.066113 -29.838914
-244.690369 220.617891 -9.654090
-144.080557 359.984070 -25.558627
-152.983418 364.001809 -22.415206
-266.636162 341.635982 -27.443632
-278.791947 60.047438 -29.845597
-351.698877 83.485711 -12.913664
-157.912138 45.777525 -15.334672
-359.979011 143.973360 -9.614196
-205.376960 72.130694 -9.502521
-329.349464 286.567169 -10.043462
-104.201291 248.633709 -20.235855
</DataArray>
</Points>
<PointData>
<DataArray NumberOfComponents='1' type='Int32' Name='ParticleType' format='ascii'>
1
1
1
1
1
1
1
1
1
1
1
1
1
1
1
1
1
1
1
1
1
1
1
1
1
1
1
1
1
1
1
1
1
1
1
1
1
1
1
1
1
1
1
1
1
1
1
1
1
1
1
1
1
1
1
1
1
1
1
1
1
1
1
1
1
1
1
1
1
1
1
1
1
1
1
1
1
1
1
1
1
1
1
1
1
1
1
1
1
1
1
1
1
1
1
1
1
1
1
1
1
1
1
1
1
1
1
1
1
1
1
1
1
1
1
1
1
1
1
1
1
1
1
1
1
1
1
1
1
1
1
1
1
1
1
1
1
1
1
1
1
1
1
1
1
1
1
1
1
1
1
1
1
1
1
1
1
1
1
1
1
1
1
1
1
1
1
1
1
1
1
1
1
1
1
1
1
1
1
1
1
1
1
1
1
1
1
1
1
1
1
1
1
1
1
1
1
1
1
1
1
1
1
1
1
1
1
1
1
1
1
1
1
1
1
1
1
1
1
1
1
1
1
1
1
1
1
1
1
1
1
1
1
1
1
1
1
1
1
1
1
1
1
1
1
1
1
1
1
1
1
1
1
1
1
1
1
1
1
1
1
1
1
1
1
1
1
1
1
1
1
1
1
1
1
1
1
1
1
1
1
1
1
1
1
1
1
1
1
1
1
1
1
1
1
1
1
1
1
1
1
1
1
1
1
1
1
1
1
1
1
1
1
1
1
1
1
1
1
1
1
1
1
1
1
1
1
1
1
1
1
1
1
1
1
1
1
1
1
1
1
1
1
1
1
1
1
1
1
1
1
1
1
1
1
1
1
1
1
1
1
1
1
1
1
1
1
1
1
1
1
1
1
1
1
1
1
1
1
1
1
1
1
1
1
1
1
1
1
1
1
1
1
1
1
1
1
1
1
1
1
1
1
1
1
1
1
1
1
1
1
1
1
1
1
1
1
1
1
1
1
1
1
1
1
1
1
1
1
1
1
1
1
1
1
1
1
1
1
1
1
1
1
1
1
1
1
1
1
1
1
1
1
1
1
1
1
1
1
1
1
1
1
1
1
1
1
1
1
1
1
1
1
1
1
1
1
1
1
1
1
1
1
1
1
1
1
1
1
1
1
1
1
1
1
1
1
1
1
1
</DataArray>
<DataArray NumberOfComponents='1' type='Int32' Name='ParticleID' format='ascii'>
0
1
2
3
4
5
6
7
8
9
10
11
12
13
14
15
16
17
18
19
20
21
22
23
24
25
26
27
28
29
30
31
32
33
34
35
36
37
38
39
40
41
42
43
44
45
46
47
48
49
50
51
52
53
54
55
56
57
58
59
60
61
62
63
64
65
66
67
68
69
70
71
72
73
74
75
76
77
78
79
80
81
82
83
84
85
86
87
88
89
90
91
92
93
94
95
96
97
98
99
100
101
102
103
104
105
106
107
108
109
110
111
112
113
114
115
116
117
118
119
120
121
122
123
124
125
126
127
128
129
130
131
132
133
134
135
136
137
138
139
140
141
142
143
144
145
146
147
148
149
150
151
152
153
154
155
156
157
158
159
160
161
162
163
164
165
166
167
168
169
170
171
172
173
174
175
176
177
178
179
180
181
182
183
184
185
186
187
188
189
190
191
192
193
194
195
196
197
198
199
200
201
202
203
204
205
206
207
208
209
210
211
212
213
214
215
216
217
218
219
220
221
222
223
224
225
226
227
228
229
230
231
232
233
234
235
236
237
238
239
240
241
242
243
244
245
246
247
248
249
250
251
252
253
254
255
256
257
258
259
260
261
262
263
264
265
266
267
268
269
270
271
272
273
274
275
276
277
278
279
280
281
282
283
284
285
286
287
288
289
290
291
292
293
294
295
296
297
298
299
300
301
302
303
304
305
306
307
308
309
310
311
312
313
314
315
316
317
318
319
320
321
322
323
324
325
326
327
328
329
330
331
332
333
334
335
336
337
338
339
340
341
342
343
344
345
346
347
348
349
350
351
352
353
354
355
356
357
358
359
360
361
362
363
364
365
366
367
368
369
370
371
372
373
374
375
376
377
378
379
380
381
382
383
384
385
386
387
388
389
390
391
392
393
394
395
396
397
398
399
400
401
402
403
404
405
406
407
408
409
410
411
412
413
414
415
416
417
418
419
420
421
422
423
424
425
426
427
428
429
430
431
432
433
434
435
436
437
438
439
440
441
442
443
444
445
446
447
448
449
450
451
452
453
454
455
456
457
458
459
460
461
462
463
464
465
466
467
468
469
470
471
472
473
474
475
476
477
478
479
480
481
482
483
484
485
486
487
488
489
490
491
492
493
494
495
496
497
498
499
</DataArray>
<DataArray NumberOfComponents='1' type='Int8' Name='IsActive' format='ascii'>
1
1
1
1
1
1
1
1
1
1
1
1
1
1
1
1
1
1
1
1
1
1
1
1
1
1
1
1
1
1
1
1
1
1
1
1
1
1
1
1
1
1
1
1
1
1
1
1
1
1
1
1
1
1
1
1
1
1
1
1
1
1
1
1
1
1
1
1
1
1
1
1
1
1
1
1
1
1
1
1
1
1
1
1
1
1
1
1
1
1
1
1
1
1
1
1
1
1
1
1
1
1
1
1
1
1
1
1
1
1
1
1
1
1
1
1
1
1
1
1
1
1
1
1
1
1
1
1
1
1
1
1
1
1
1
1
1
1
1
1
1
1
1
1
1
1
1
1
1
1
1
1
1
1
1
1
1
1
1
1
1
1
1
1
1
1
1
1
1
1
1
1
1
1
1
1
1
1
1
1
1
1
1
1
1
1
1
1
1
1
1
1
1
1
1
1
1
1
1
1
1
1
1
1
1
1
1
1
1
1
1
1
1
1
1
1
1
1
1
1
1
1
1
1
1
1
1
1
1
1
1
1
1
1
1
1
1
1
1
1
1
1
1
1
1
1
1
1
1
1
1
1
1
1
1
1
1
1
1
1
1
1
1
1
1
1
1
1
1
1
1
1
1
1
1
1
1
1
1
1
1
1
1
1
1
1
1
1
1
1
1
1
1
1
1
1
1
1
1
1
1
1
1
1
1
1
1
1
1
1
1
1
1
1
1
1
1
1
1
1
1
1
1
1
1
1
1
1
1
1
1
1
1
1
1
1
1
1
1
1
1
1
1
1
1
1
1
1
1
1
1
1
1
1
1
1
1
1
1
1
1
1
1
1
1
1
1
1
1
1
1
1
1
1
1
1
1
1
1
1
1
1
1
1
1
1
1
1
1
1
1
1
1
1
1
1
1
1
1
1
1
1
1
1
1
1
1
1
1
1
1
1
1
1
1
1
1
1
1
1
1
1
1
1
1
1
1
1
1
1
1
1
1
1
1
1
1
1
1
1
1
1
1
1
1
1
1
1
1
1
1
1
1
1
1
1
1
1
1
1
1
1
1
1
1
1
1
1
1
1
1
1
1
1
1
1
1
1
1
1
1
1
1
1
1
1
1
1
1
1
1
1
1
1
1
1
1
1
1
1
</DataArray>
<DataArray NumberOfComponents='1' type='Int32' Name='ParticleTetID' format='ascii'>
2684
2620
7903
6323
1253
24336
18374
8661
2684
22213
8113
8240
11610
8210
10785
10178
2775
14965
8335
5933
14550
4142
4097
11292
10177
371
16265
9078
916
12011
10608
23546
796
293
7909
3191
18374
1179
7482
9014
17211
3422
269
11516
10611
3923
2301
4956
2188
274
9024
3043
1340
11087
2270
19535
181
10850
4887
15918
22301
4920
9867
292
3000
17135
13460
10177
12927
1178
6558
11391
11279
9029
9126
12884
302
5520
2472
1664
14257
925
4874
2441
5373
8209
12676
2779
20565
5952
3399
10179
19052
8113
9407
11936
13266
6431
1867
11237
8114
7835
6635
3810
3698
5512
16031
14553
2006
2709
1180
2273
180
11873
10785
8077
1666
4000
7904
2372
4193
3423
11004
19719
293
989
6848
275
8399
13910
21638
5762
12624
19718
9372
2534
9347
1663
7857
9146
9459
3631
14575
17990
366
11291
9641
10715
2534
3272
12928
8951
16280
6414
802
7924
9708
11390
11936
2360
17717
7906
6203
5303
4141
17717
8950
9515
15918
9600
7909
6492
367
6085
9278
292
10690
9459
17716
370
928
1867
15987
222
4368
15076
5664
3589
16027
19170
6635
4279
13310
1650
1782
5808
19863
5786
2024
13909
371
8078
987
3326
15917
19863
4896
8644
5930
10242
10610
2473
6200
4887
15008
14554
9312
302
526
8259
5372
11390
23433
9515
439
12229
2550
11951
9713
7347
8780
16957
10779
8844
4180
6141
7371
12883
7460
9255
2303
4287
9282
2615
369
3920
3001
11292
14277
12833
3171
10609
2149
801
10177
7130
10774
7933
17152
20163
16207
9126
1179
4958
12626
1178
7145
19217
2622
2000
13006
19383
15095
11867
9225
16030
9282
5213
10181
732
9028
12629
13387
11008
7275
21923
9012
5582
8996
6332
2325
20922
10465
2270
16197
3001
5930
11263
9549
10928
3911
6473
6699
10466
14475
3325
9297
7981
23435
4872
3342
12562
7986
385
5930
22159
3272
6966
4887
1662
3631
5512
4298
9867
3815
10610
18
17221
14553
4270
3440
16794
18031
2442
23795
2442
12973
3199
3421
371
10715
16268
9004
9876
3671
9372
3870
8431
7554
7545
18366
13388
7922
11870
4051
11423
9579
11005
2325
9266
369
5929
9255
4096
4405
9690
5774
3219
6058
11021
3920
11612
2778
1867
16281
3917
15340
669
9275
2185
20567
9003
21442
9004
2276
1828
10878
18008
3934
8231
230
15370
9299
11867
11239
23003
13899
5595
11152
22141
2472
9730
8380
5597
15080
13379
4287
11762
3173
17991
13449
8113
12225
9796
12053
4189
9314
6629
16259
12053
8400
4157
4197
928
7347
7554
1344
6085
20562
370
11874
9689
10610
6761
2276
3166
2613
9405
12625
2609
5931
6044
10609
1180
5753
2534
8103
12929
10181
23002
14222
9005
11029
1074
178
3002
2737
4274
1178
9327
4405
2336
2542
12975
3907
12948
17211
9078
16971
3334
917
15539
5597
7635
6741
12927
13446
5179
274
11419
3886
2523
16812
4926
4208
4097
3920
9266
16808
9545
14968
14969
9876
9608
11326
20562
5081
9923
6628
10467
</DataArray>
<DataArray NumberOfComponents='3' type='Float32' Name='vels' format='ascii'>
1.796865 0.101771 -0.006106
2.399400 -0.103352 -0.000319
0.251006 0.072062 -0.001564
0.345324 0.054998 -0.000294
2.431999 0.237928 0.000878
0.177148 0.193405 0.014536
2.211504 -0.188833 0.001349
1.459150 0.263010 -0.000583
1.842022 0.100887 -0.007084
2.224235 0.271328 -0.016276
1.530587 -0.187079 -0.001191
0.206160 -0.060833 0.000272
2.244220 -0.165756 -0.002948
0.815922 -0.080654 -0.000637
1.834465 0.169110 0.000210
2.512833 0.165344 -0.000004
2.013017 -0.127525 0.000100
2.570103 0.497241 -0.002010
0.135580 0.022916 -0.000529
2.230070 -0.422640 0.000027
2.312609 -0.053327 0.000002
1.508138 -0.346089 0.000285
2.267608 0.186409 0.000583
2.382216 0.636935 -0.002591
2.600628 0.193645 -0.000409
2.108862 0.166368 -0.013336
0.038256 -0.000032 -0.000495
2.381519 -0.117872 -0.000495
0.998472 0.196128 -0.000743
1.905607 0.463925 0.001558
2.411777 0.060310 0.000927
1.403083 -0.091919 -0.008640
1.905610 0.502529 -0.004050
2.249054 0.142584 -0.000594
0.124127 0.035811 -0.001397
2.185129 0.141006 0.004321
2.298949 -0.194102 0.000008
2.377875 -0.433399 0.001781
1.990855 0.079262 0.000594
2.085846 -0.422385 0.000606
1.828426 -0.419810 -0.000533
2.026578 -0.179631 0.001256
1.407252 -0.114318 -0.002918
2.035854 -0.524890 -0.000337
2.510440 0.074204 0.001272
0.038696 -0.000151 -0.008107
1.672008 -0.348179 0.006755
2.344123 0.125055 -0.000678
2.252236 0.288972 0.001390
2.258855 0.131707 0.003406
2.436655 0.416057 0.000685
1.497862 0.158772 -0.006675
2.489283 -0.107295 -0.003647
1.676906 0.394421 -0.001908
0.003304 -0.009084 0.007975
2.027929 -0.087630 -0.001936
2.119011 0.447934 -0.006823
0.000022 0.000030 0.002227
2.493320 0.167338 -0.001537
2.381555 -0.610753 -0.001959
0.331368 -0.037846 0.000505
2.454763 0.454713 -0.000224
1.917800 0.515665 -0.002818
2.207634 0.119851 -0.002791
1.984611 0.140446 0.002827
0.557756 0.069538 -0.000643
2.385379 -0.103266 0.001147
2.618219 0.141353 0.000172
1.967570 -0.426774 -0.000574
2.331583 -0.431451 0.000517
1.572560 -0.277752 -0.000852
0.812667 0.006718 -0.000242
1.271395 0.359010 0.001637
2.259359 0.368953 0.001763
1.339276 0.093035 -0.000637
0.206037 0.000294 0.000375
2.081927 0.156462 -0.000776
2.300715 0.216271 -0.000371
2.410701 0.092312 0.000963
2.388962 0.091524 -0.002353
0.080286 -0.016696 -0.002077
2.501239 0.083049 0.000251
2.183285 0.479802 -0.000089
2.308470 -0.447133 -0.000131
2.350506 0.268851 -0.001345
1.676061 -0.151620 0.000055
2.666209 0.680632 -0.001960
2.527497 -0.106792 -0.001428
2.389992 -0.495230 -0.001480
2.164203 -0.149898 0.000186
1.816176 0.087613 0.004545
2.652323 0.207820 0.000548
2.417793 0.051518 -0.001556
1.629537 -0.196059 -0.001815
1.360966 -0.019365 0.001906
0.987022 -0.006012 -0.002889
0.890400 -0.070746 -0.001690
2.016961 0.289987 0.000696
1.849625 0.393254 -0.002225
1.934009 -0.387055 -0.001865
2.408351 -0.257346 -0.003794
0.010693 0.003130 -0.000428
0.575557 0.096399 0.001632
-0.001896 -0.000009 0.001712
-0.000701 -0.001248 -0.006665
2.018406 0.219055 0.000118
0.021835 0.000010 0.000201
2.337404 -0.092989 0.000474
-0.005524 -0.000711 -0.002730
2.450792 -0.604296 -0.000800
2.235586 -0.445335 -0.002281
0.001356 -0.001084 0.001770
1.280636 0.308213 -0.000280
0.009071 -0.000003 -0.000094
1.866363 0.177735 -0.000096
1.940401 0.231829 0.000012
2.376607 0.100861 -0.000909
1.820710 0.330031 0.000788
0.044060 0.012975 -0.001368
4.226254 0.233013 -0.003727
1.460538 -0.395249 0.002531
2.487801 -0.168816 0.001711
2.444148 0.335849 -0.001376
2.375484 -0.465293 0.000172
2.199415 0.155933 0.000769
0.273548 0.066406 -0.000326
0.289848 -0.046608 0.000560
1.956766 0.149460 -0.001006
2.502374 0.339260 0.001728
1.795265 -0.379836 -0.000270
0.667960 -0.128824 0.001341
0.027415 0.000020 -0.000983
2.475157 0.354403 -0.000874
2.280973 -0.463049 -0.000482
1.781296 -0.033881 0.004432
1.910873 -0.138135 0.000226
1.627953 -0.035838 -0.000526
2.528345 0.101577 0.001928
2.319043 0.629090 0.001151
0.556511 0.008317 0.001764
0.519989 0.002702 0.000252
1.823170 0.180541 -0.000713
1.742616 -0.070714 0.000250
2.390382 -0.037309 -0.001052
2.272652 0.152491 0.001541
2.173227 0.575285 -0.004853
1.854166 -0.506965 0.001259
2.275452 0.244933 0.002493
2.416582 -0.179764 0.000445
1.940797 -0.081542 -0.004874
1.656855 -0.318614 -0.000764
2.487820 0.498427 0.001731
2.439907 -0.040315 -0.000032
2.126687 0.266544 -0.004819
2.664855 0.682801 -0.004481
0.013385 0.003897 -0.000578
1.783413 -0.487172 -0.000241
0.012412 -0.000021 0.000639
1.271367 -0.019330 0.005405
2.268537 0.129564 -0.009128
2.353398 0.209435 -0.001117
0.004429 0.001284 -0.001369
2.391486 0.441293 0.000119
2.314131 0.424479 0.008922
0.618470 -0.146516 -0.006378
2.378065 0.206384 -0.000730
2.436893 0.498332 0.003856
2.126393 0.053328 -0.000797
2.395648 -0.614118 -0.002026
2.437768 -0.638696 -0.002630
0.311417 0.090562 0.000351
1.877092 -0.352535 -0.000349
2.409535 0.120615 0.000870
2.360908 0.226421 0.002938
1.781741 -0.035386 0.002987
2.163600 0.103133 -0.003251
-0.004777 0.003509 0.000145
1.271806 0.017289 0.001480
2.393535 0.191402 0.000197
2.267791 0.153747 0.000389
2.075497 0.040928 -0.001723
1.745943 0.359242 -0.000705
2.011649 -0.117772 0.000007
2.529674 0.630075 -0.000539
2.798154 -0.760848 -0.031536
2.496704 0.518347 -0.000056
2.369328 0.500672 -0.000044
2.162392 0.634053 0.028974
0.052607 0.000204 -0.001161
0.229578 0.198435 0.000625
0.064088 0.010523 0.000837
1.851869 -0.109269 0.000762
2.049492 -0.153391 -0.000913
2.333599 0.150439 0.000008
1.254746 0.300545 -0.002528
2.201769 -0.219967 0.000496
2.407800 -0.027609 0.000558
2.156455 -0.560521 -0.003827
2.473563 -0.284159 -0.001935
1.605014 -0.311092 0.000720
2.348676 0.138445 -0.000174
2.258902 0.279445 -0.000033
1.647065 0.400018 0.002013
2.187827 -0.175009 0.000246
1.951115 -0.509912 -0.003565
2.386394 -0.002343 0.001033
1.520345 -0.319565 -0.003015
0.870958 0.146235 0.000891
2.247168 -0.387713 -0.000696
0.409077 -0.008368 -0.001088
2.488168 0.090460 -0.001671