<VTKFile type='UnstructuredGrid' version='1.0' byte_order='LittleEndian' header_type='UInt64'>
<UnstructuredGrid>
<Piece NumberOfCells='500' NumberOfPoints='500'>
<Points>
<DataArray NumberOfComponents='3' type='Float32' Name='Position' format='ascii'>
585.825256 181.773110 -4.492018
1029.059357 188.209033 -16.808274
-146.056387 376.069605 -6.248430
672.462501 257.050853 -6.435053
1029.278797 232.304881 -20.074967
-125.638163 110.113159 -2.305546
1029.253611 152.748402 -21.930599
1028.999307 227.831264 -4.645276
585.880390 185.358263 -3.953556
65.795071 253.293054 -5.179521
1029.136333 154.676584 -29.201451
89.631060 177.432237 -27.173965
-2.257092 224.039633 -6.290809
639.486913 123.062059 -4.504458
608.339297 216.877868 -4.394749
1029.359902 252.147987 -15.006536
1029.119520 187.784713 -4.743284
1029.087137 262.783777 -11.868301
-10.836696 281.574322 -7.548042
1029.193912 138.980634 -19.474711
1029.180406 166.324271 -12.000646
596.315141 37.101782 -4.618765
1029.076102 228.539705 -26.569211
460.843887 396.366353 -3.744824
1029.103216 249.678682 -17.080837
1028.990499 208.533237 -16.447437
1029.196326 188.604010 -17.100767
1029.136178 186.426719 -8.694585
138.867625 209.392371 -37.557456
1029.023483 265.307023 -7.267714
646.832731 215.370461 -12.194814
440.540910 55.850105 -1.628875
1029.231420 262.000992 -8.732897
1029.083701 205.611464 -10.271489
422.306524 386.274159 -3.543799
978.449281 189.021179 -7.770338
1029.074164 155.183680 -27.112406
1029.321351 153.281068 -16.377951
514.682261 171.452709 -31.460120
1028.982668 142.206514 -26.628187
1028.977491 138.452308 -6.168599
650.411307 124.955139 -2.716875
369.119942 25.993819 -23.809055
1029.147816 142.387907 -29.713177
828.068105 212.891081 -17.698882
-244.559410 218.864033 -37.634721
209.261873 164.281309 -35.208687
975.944738 214.080161 -9.087310
1029.339088 256.934836 -22.392138
706.220259 189.447896 -6.845361
1029.096555 251.048780 -9.627166
836.632058 238.511633 -5.699124
1029.044092 190.888146 -17.070591
289.276979 294.863278 -37.320956
-491.966766 186.797168 -2.144378
1029.140656 185.673421 -7.749712
539.814327 324.850026 -4.567813
-174.832748 181.273840 -30.966658
1029.281029 251.617953 -16.541149
686.773529 25.463984 -11.722291
518.732462 61.311242 -29.113752
1029.144067 251.298274 -9.433218
774.123641 346.217445 -8.246333
946.010306 185.252227 -10.590818
1029.099325 207.296483 -29.207397
273.321959 236.947744 -37.495394
583.624711 155.130963 -36.543499
1029.003818 260.121252 -19.353480
1029.219105 141.565174 -7.227381
1029.030335 140.847806 -10.327024
1029.210581 151.177371 -10.058554
-158.518866 180.806598 -34.618812
422.743582 386.163063 -3.664093
1029.370072 249.889205 -17.917543
574.997595 220.604199 -3.617836
573.856577 211.254350 -31.108181
963.045290 214.755480 -29.071135
1029.088630 226.583231 -26.791639
682.325508 192.044159 -7.920493
676.474607 182.391596 -13.251369
785.716087 91.707089 -6.112585
1029.075219 199.084609 -13.594524
1029.306689 250.607125 -21.757990
1029.275264 140.263570 -17.033113
1029.110714 228.986199 -22.802082
644.319991 124.814152 -4.162001
1029.118126 264.933374 -10.231840
1029.150350 191.275146 -16.086105
1029.304192 140.303527 -20.675616
1029.296586 152.742705 -21.728450
478.171526 219.499830 -33.549031
1029.317875 251.504023 -16.457303
1029.142010 196.584875 -14.344229
1029.292726 155.217574 -29.018318
1029.213633 188.409014 -16.858498
498.582807 211.101201 -1.825256
325.938192 103.347993 -2.290446
967.599858 241.329161 -6.053930
1029.337316 249.376128 -23.538960
1029.006290 140.497051 -6.606818
1029.101994 154.322595 -29.456101
136.473189 230.988640 -5.936854
1029.023898 231.951962 -20.916878
-432.337336 176.851013 -26.664220
-359.931857 250.185673 -19.992321
1029.244989 230.300666 -9.687840
1029.187334 191.618517 -20.456878
1029.318341 165.992030 -17.959244
-279.420621 262.759104 -19.991648
1028.977543 140.299234 -17.001177
1029.189046 140.141349 -19.420439
-501.545828 192.507109 -9.428523
323.254939 336.255669 -3.369785
1029.088515 191.145182 -20.070877
1029.119364 214.611647 -7.296110
1029.162892 231.219450 -28.952026
439.618862 74.188079 -20.843957
1029.069190 250.884586 -9.429735
-146.568385 379.539710 -5.685193
1029.161448 191.361488 -22.229912
153.598995 161.456635 -36.073477
1029.017562 182.407524 -4.431521
1029.203531 259.133438 -14.979347
1029.386622 140.349597 -17.517165
823.098087 212.685268 -8.839563
122.311579 222.311275 -33.710709
377.639320 41.467018 -2.348081
672.965990 213.258427 -7.100803
1029.257480 229.715106 -21.899225
1029.221177 141.549552 -28.168380
360.445400 35.062288 -2.535893
-175.864371 214.610055 -5.518901
1029.184340 250.622315 -9.354484
1029.115912 138.104862 -11.754595
1029.020587 188.147850 -23.823336
1029.259073 166.069571 -28.080659
1029.121508 190.466885 -8.136797
1029.124786 206.293152 -17.948811
422.237684 386.356569 -3.913509
-179.404561 213.323347 -4.032973
1028.976683 198.275371 -20.143932
1029.216848 231.067388 -27.441933
679.101373 159.386484 -36.448957
1029.134359 189.002731 -8.993922
1028.982673 228.031097 -11.093356
881.409259 304.106635 -6.590453
700.313945 30.870622 -20.298495
1029.064718 230.128527 -9.890916
1029.261154 171.158954 -29.184869
381.472231 52.266270 -10.001146
1029.152980 136.636137 -10.985803
1014.626121 255.380336 -6.213489
1029.072949 189.720784 -13.672791
1029.126679 229.823613 -11.368067
1029.116635 266.379400 -22.171789
579.129073 368.714088 -11.728306
1029.194718 140.926378 -10.790143
-96.175317 180.172082 -31.674283
483.053281 103.877878 -2.400067
498.327140 195.411071 -5.525925
832.293944 219.195976 -12.399757
515.336201 372.263239 -11.899873
1029.165082 249.277036 -18.436584
1029.236544 229.448986 -17.039859
581.367433 108.643566 -1.800008
1029.046234 203.253687 -14.894425
1029.162656 250.509853 -9.214404
334.635166 95.629822 -26.660658
525.857992 3.953696 -13.253391
631.072706 14.414490 -12.501052
60.103096 330.249620 -18.800860
1028.993105 141.600352 -27.791848
1029.312762 229.305865 -15.668280
739.917007 223.511189 -4.358952
1029.207264 189.143456 -11.935037
1029.079315 195.523317 -11.910939
-521.889082 274.694572 -37.114108
1029.232534 189.628657 -19.390733
895.791758 190.002153 -9.339588
1029.259166 229.986926 -17.220021
1029.103068 198.247599 -27.320136
1028.989402 252.799752 -25.582654
1029.160703 187.417509 -7.500706
1029.086343 261.955222 -10.171866
90.174918 179.564645 -26.173698
1029.196213 265.861447 -23.563606
1029.060599 250.741090 -23.158830
1028.978047 263.287548 -11.028804
-52.873166 192.921724 -20.023890
-151.936879 313.194093 -3.582942
1029.184939 230.710144 -21.207296
1029.139103 188.001014 -24.091368
1029.296602 165.116357 -11.684768
771.182512 212.663064 -28.661125
327.870200 318.953886 -2.684923
1029.246652 152.097065 -21.274371
1029.238727 166.185289 -18.220476
656.604823 16.974362 -12.401011
1029.317852 166.310171 -11.196974
1029.074538 141.753036 -28.112455
1028.978325 226.681346 -19.098767
1029.070636 229.001683 -26.946571
322.625087 315.549546 -34.865299
1029.076318 154.088305 -26.648681
895.579328 85.397153 -7.588183
1029.134247 165.425647 -17.916420
577.989855 58.444219 -4.062530
1028.993193 251.027087 -9.360745
1029.191202 138.906774 -12.100933
-123.312133 179.259606 -2.716388
790.843373 212.671420 -15.948524
1028.987540 207.207378 -15.083185
1029.256612 249.121303 -18.632310
1029.083419 261.565138 -18.628778
1029.186294 141.644426 -26.875536
1029.125480 163.915666 -20.865933
1029.067550 187.903334 -11.437351
780.158774 212.668376 -28.398868
1028.977323 191.701105 -10.560304
33.100791 116.397144 -34.510315
1029.130325 227.908705 -11.363294
1029.161652 187.907923 -23.740786
286.178050 162.996422 -33.784628
1028.994581 191.539402 -20.807746
1029.089074 228.582486 -11.134421
1029.032689 139.337093 -11.491075
831.318206 181.456911 -26.505230
372.620258 58.008078 -18.904551
781.536168 53.549826 -20.257610
1029.118109 188.779216 -7.828990
1029.058995 154.448558 -27.720059
431.909000 254.555876 0.000849
499.988610 215.316703 -35.626578
1029.130825 162.909080 -15.085360
1029.287445 139.578995 -9.591735
483.631752 391.019412 -4.657285
1029.138655 191.579951 -20.417899
682.132873 220.414921 -25.818973
679.873277 180.712231 -19.891503
1029.215009 263.230013 -9.648705
741.805852 70.418829 -28.588637
1029.034368 200.459019 -7.800582
1029.114565 185.116480 -26.917102
1029.027159 188.449629 -8.741109
1029.088616 227.990706 -18.525192
1028.995233 188.013687 -23.848952
729.878140 191.746384 -30.046172
1028.976192 263.358560 -7.415076
1028.983311 138.661981 -6.366192
191.453440 173.184189 -34.236764
1029.056723 204.324582 -9.094241
1028.993735 205.652109 -16.980837
1029.000713 266.680231 -14.841078
1029.019230 264.554280 -17.341043
1029.020443 260.195748 -17.082613
571.245419 164.866043 -6.024011
1029.136234 190.187559 -24.030354
-17.925891 376.502981 -30.416965
9.032065 278.060418 -36.880249
639.371967 184.464758 -5.755804
316.750091 181.377477 -17.825126
588.507897 223.505866 -3.820593
1028.992364 140.724015 -18.226469
1029.094447 201.959905 -15.364515
1029.288175 250.532170 -11.240318
1028.982169 140.578835 -8.523235
304.366387 186.660476 -36.971183
-499.097530 188.884984 -25.118155
1028.991480 184.793799 -26.995024
-60.975342 289.898303 -4.347588
1029.263509 251.378450 -21.648380
-405.836280 125.955568 -35.959573
1029.055936 181.494904 -18.997324
311.357785 150.445105 -10.517900
1029.168282 189.604127 -16.148881
313.045568 178.027644 -26.958280
1029.060040 188.469406 -26.483053
1029.156936 166.796368 -19.504463
1029.062033 251.332961 -17.754174
880.661370 218.957718 -19.546914
1029.058731 251.612451 -21.507725
1029.209896 251.530546 -18.765869
1029.226357 141.141672 -26.962504
1029.035831 258.818714 -21.723534
1029.137454 191.840832 -7.148699
273.404076 176.505832 -33.734088
1028.992617 143.275617 -33.765066
296.083980 346.509331 -3.956395
1029.052570 231.238678 -23.593649
1028.981230 228.890302 -26.848342
846.988447 296.899604 -6.170799
1029.019086 186.784368 -8.920433
1029.062089 229.606706 -11.842059
-493.150620 185.970020 -4.055297
276.985919 164.048450 -33.979218
913.777177 188.587146 -30.085236
1029.055737 139.105929 -11.640209
578.863023 77.058774 -32.489024
1029.084872 192.212440 -20.238293
-212.325515 212.506635 -5.113453
361.698935 237.224898 -11.297622
1028.996143 151.715862 -17.273462
1028.994285 231.174448 -6.028807
411.591621 245.039275 -3.410562
591.813488 214.683291 -4.646547
1029.256785 153.702561 -22.613375
1029.274629 189.295571 -19.419725
1028.980026 266.824802 -15.162600
323.644728 43.723725 -33.346578
1029.096721 252.600993 -23.946544
1029.235200 153.879772 -27.568629
-241.458979 213.072202 -36.324012
757.844338 337.207996 -23.205364
1029.273908 151.732683 -17.452964
1029.014351 139.407205 -11.818104
-114.704612 216.421422 -4.513428
1028.984348 184.826144 -32.941579
646.204247 126.022836 -3.514495
1028.980649 249.835231 -21.175183
832.487443 188.862797 -11.220080
1029.188393 230.634547 -28.444128
1029.080799 230.197874 -9.454699
673.094045 214.469016 -30.781549
785.569490 340.528711 -7.426835
736.968862 142.186365 -28.909334
1029.008500 206.564596 -15.792315
581.430897 148.531831 -2.370459
1029.067852 141.603446 -27.818469
1029.069269 165.176413 -18.524279
1029.133526 191.427176 -10.540003
360.763155 68.955879 -1.590364
49.128931 219.088651 -5.534679
642.096896 12.687554 -25.548247
1029.220334 140.786220 -22.054353
330.078239 237.040446 -37.781532
1029.175277 141.288491 -25.554240
472.146762 100.005619 -31.678769
1028.983994 232.598256 -35.049830
650.294434 123.801427 -4.771667
1029.228811 229.056026 -21.423484
1029.263211 229.727649 -8.828450
376.533815 242.022633 -27.656172
1029.255636 140.847097 -10.347196
1029.144526 262.952322 -22.063480
469.903352 30.480555 -32.728025
1029.093018 189.431262 -22.359625
280.460941 301.911493 -2.503766
1029.246426 229.393185 -16.587050
878.128246 180.585140 -25.046619
1029.093379 191.825392 -10.545870
1029.146176 187.848913 -9.040993
1029.240783 141.515258 -27.379984
-221.013911 358.356714 -5.996885
1029.025452 191.423095 -15.451683
494.284137 369.927219 -5.522675
-107.447938 219.934363 -26.194238
608.065348 5.615116 -10.298118
1029.083022 262.773429 -19.497108
1029.086616 250.371744 -7.973811
1029.037398 262.781573 -26.167907
1029.137774 227.226450 -10.712844
1029.144133 141.824809 -12.094427
1028.988883 264.995240 -7.280992
1029.072346 230.843770 -24.585391
300.400320 27.468612 -32.745058
648.472859 14.089778 -11.758485
959.057858 177.237968 -22.647461
383.684695 264.370111 -20.016850
-125.704772 107.382460 -25.960189
713.237083 132.439815 -6.004868
1028.999467 189.009184 -23.377562
-34.649701 216.552730 -5.649508
1029.220458 185.847851 -11.251454
1029.284457 252.216365 -23.460776
1029.129728 164.701498 -20.667179
1029.238084 189.379812 -19.425016
597.318726 348.883827 -12.541025
1028.998408 152.824558 -6.281295
1029.029557 189.622144 -9.059488
1029.097936 262.061277 -16.866182
1029.292222 139.341657 -20.537809
1029.028994 140.404660 -8.938870
769.134345 51.880996 -6.805398
1029.005844 140.255329 -9.204981
-500.484290 193.003504 -15.299127
422.364659 386.234165 -5.736371
1029.087163 227.049554 -11.271518
731.148950 188.082829 -19.190610
868.858324 317.511347 -18.198973
8.525557 24.146354 -12.019847
1029.284670 252.620977 -25.589771
-284.092198 212.789879 -37.769297
1029.146218 191.360374 -20.366622
1029.105913 190.489401 -8.928432
1028.984297 152.167014 -15.410153
518.113529 196.406916 -34.367952
1028.977495 139.629717 -6.673073
121.141352 267.263996 -34.699618
1029.217982 189.239624 -24.197824
-137.945520 176.848036 -5.746491
805.361828 212.678350 -9.199199
-216.870102 39.284454 -26.262781
1029.331110 152.525238 -20.330589
123.677722 238.108510 -36.119269
1029.187656 251.079710 -22.841616
1029.318670 140.222168 -7.695200
511.938424 163.260638 -6.082050
1029.189180 152.203793 -9.786901
932.817847 185.664129 -10.519131
1029.020630 165.105675 -19.151886
1029.009679 191.458190 -6.372217
1029.190473 154.549839 -27.821762
1029.119299 138.490448 -7.169665
-110.869806 388.003398 -12.585761
1028.992859 189.529076 -21.214293
1029.200837 141.506837 -28.207214
1029.122687 189.627835 -12.980992
1029.110689 230.414989 -7.779148
311.884884 150.313398 -10.049563
1029.067094 190.358882 -21.601804
1029.149717 228.931587 -26.989552
377.856411 12.885174 -8.543185
594.994827 355.119471 -6.577692
1029.126705 199.221430 -20.196635
1028.978204 191.616251 -5.973972
1029.154759 191.002642 -23.581673
1029.118563 166.532241 -28.691753
712.371297 226.158277 -4.415539
1029.114841 139.297521 -11.567960
411.558032 245.110662 -3.276845
1029.136270 191.163161 -23.318089
651.563306 15.814616 -10.697976
1029.105731 205.069380 -15.635904
1028.991614 151.329544 -19.248305
-500.734489 193.222266 -15.773639
372.463835 57.831955 -24.727613
1029.120078 187.702432 -9.310782
1029.163817 184.148452 -21.974278
1029.312471 248.234907 -9.873754
539.689002 119.076805 -33.430122
1029.328978 136.843542 -18.881703
1029.094399 248.978200 -25.149447
1029.222021 229.310936 -11.098716
1029.172426 140.413768 -21.018412
1029.112981 188.285432 -16.581198
1029.118423 167.132526 -29.081801
1029.032436 162.086172 -8.090933
1029.041121 142.217793 -6.243565
1029.236015 251.014534 -17.909152
377.504045 254.487253 -33.013832
543.463155 231.644549 -1.735488
1028.977966 139.590846 -10.513834
1029.013381 155.959542 -27.775785
664.544113 178.216821 -26.401283
377.095710 254.885456 -33.605495
1029.030631 206.195502 -29.210784
813.783001 176.732062 -6.789298
1029.122752 191.332256 -15.803695
1029.022018 152.098673 -9.721617
1028.979961 185.456998 -7.675500
102.487737 171.338474 -31.909211
1029.034602 250.235039 -24.035320
894.404780 182.551125 -11.987772
372.583433 59.776160 -12.460715
-167.290945 219.284628 -6.197213
1029.121923 139.486113 -10.572183
1028.993989 138.911566 -6.091481
1029.016906 187.725508 -9.274138
769.600904 218.681428 -27.963016
1029.281845 164.317919 -10.568704
162.609398 207.415907 -37.737905
750.746716 312.123376 -6.000516
123.145586 230.402545 -35.978871
604.575108 6.319018 -8.834806
400.884835 273.474580 -5.355285
1029.080642 139.809185 -8.448109
566.732840 154.023546 -2.380382
1029.190996 251.339016 -24.093351
823.576133 212.679033 -8.359305
-57.730240 206.922989 -19.546480
153.143730 214.188135 -37.164059
1029.091622 188.026010 -8.426024
513.415103 129.429112 -1.516608
1029.233175 246.857364 -23.058501
699.216034 363.240779 -26.154126
1029.182799 226.565878 -26.855878
1029.101006 187.965896 -24.494495
1029.001557 265.025473 -24.043119
1029.035127 184.774956 -22.472807
1029.077783 191.459570 -6.368736
1029.147602 265.728428 -24.808093
1028.979811 266.614511 -21.884949
722.935211 361.354162 -23.923252
89.866597 178.518888 -26.268315
378.075462 7.721897 -0.963226
1029.072314 141.391280 -11.738849
732.449158 87.308623 -5.268850
1029.042814 142.222528 -5.287601
847.924369 291.198668 -6.759711
987.604147 214.782713 -17.845437
</DataArray>
</Points>
<PointData>
<DataArray NumberOfComponents='1' type='Int32' Name='ParticleType' format='ascii'>
1
1
1
1
1
1
1
1
1
1
1
1
1
1
1
1
1
1
1
1
1
1
1
1
1
1
1
1
1
1
1
1
1
1
1
1
1
1
1
1
1
1
1
1
1
1
1
1
1
1
1
1
1
1
1
1
1
1
1
1
1
1
1
1
1
1
1
1
1
1
1
1
1
1
1
1
1
1
1
1
1
1
1
1
1
1
1
1
1
1
1
1
1
1
1
1
1
1
1
1
1
1
1
1
1
1
1
1
1
1
1
1
1
1
1
1
1
1
1
1
1
1
1
1
1
1
1
1
1
1
1
1
1
1
1
1
1
1
1
1
1
1
1
1
1
1
1
1
1
1
1
1
1
1
1
1
1
1
1
1
1
1
1
1
1
1
1
1
1
1
1
1
1
1
1
1
1
1
1
1
1
1
1
1
1
1
1
1
1
1
1
1
1
1
1
1
1
1
1
1
1
1
1
1
1
1
1
1
1
1
1
1
1
1
1
1
1
1
1
1
1
1
1
1
1
1
1
1
1
1
1
1
1
1
1
1
1
1
1
1
1
1
1
1
1
1
1
1
1
1
1
1
1
1
1
1
1
1
1
1
1
1
1
1
1
1
1
1
1
1
1
1
1
1
1
1
1
1
1
1
1
1
1
1
1
1
1
1
1
1
1
1
1
1
1
1
1
1
1
1
1
1
1
1
1
1
1
1
1
1
1
1
1
1
1
1
1
1
1
1
1
1
1
1
1
1
1
1
1
1
1
1
1
1
1
1
1
1
1
1
1
1
1
1
1
1
1
1
1
1
1
1
1
1
1
1
1
1
1
1
1
1
1
1
1
1
1
1
1
1
1
1
1
1
1
1
1
1
1
1
1
1
1
1
1
1
1
1
1
1
1
1
1
1
1
1
1
1
1
1
1
1
1
1
1
1
1
1
1
1
1
1
1
1
1
1
1
1
1
1
1
1
1
1
1
1
1
1
1
1
1
1
1
1
1
1
1
1
1
1
1
1
1
1
1
1
1
1
1
1
1
1
1
1
1
1
1
1
1
1
1
1
1
1
1
1
1
1
1
1
1
1
1
1
1
1
1
1
1
1
1
1
1
1
1
1
1
1
1
1
1
1
1
1
1
1
1
1
1
1
</DataArray>
<DataArray NumberOfComponents='1' type='Int32' Name='ParticleID' format='ascii'>
0
1
2
3
4
5
6
7
8
9
10
11
12
13
14
15
16
17
18
19
20
21
22
23
24
25
26
27
28
29
30
31
32
33
34
35
36
37
38
39
40
41
42
43
44
45
46
47
48
49
50
51
52
53
54
55
56
57
58
59
60
61
62
63
64
65
66
67
68
69
70
71
72
73
74
75
76
77
78
79
80
81
82
83
84
85
86
87
88
89
90
91
92
93
94
95
96
97
98
99
100
101
102
103
104
105
106
107
108
109
110
111
112
113
114
115
116
117
118
119
120
121
122
123
124
125
126
127
128
129
130
131
132
133
134
135
136
137
138
139
140
141
142
143
144
145
146
147
148
149
150
151
152
153
154
155
156
157
158
159
160
161
162
163
164
165
166
167
168
169
170
171
172
173
174
175
176
177
178
179
180
181
182
183
184
185
186
187
188
189
190
191
192
193
194
195
196
197
198
199
200
201
202
203
204
205
206
207
208
209
210
211
212
213
214
215
216
217
218
219
220
221
222
223
224
225
226
227
228
229
230
231
232
233
234
235
236
237
238
239
240
241
242
243
244
245
246
247
248
249
250
251
252
253
254
255
256
257
258
259
260
261
262
263
264
265
266
267
268
269
270
271
272
273
274
275
276
277
278
279
280
281
282
283
284
285
286
287
288
289
290
291
292
293
294
295
296
297
298
299
300
301
302
303
304
305
306
307
308
309
310
311
312
313
314
315
316
317
318
319
320
321
322
323
324
325
326
327
328
329
330
331
332
333
334
335
336
337
338
339
340
341
342
343
344
345
346
347
348
349
350
351
352
353
354
355
356
357
358
359
360
361
362
363
364
365
366
367
368
369
370
371
372
373
374
375
376
377
378
379
380
381
382
383
384
385
386
387
388
389
390
391
392
393
394
395
396
397
398
399
400
401
402
403
404
405
406
407
408
409
410
411
412
413
414
415
416
417
418
419
420
421
422
423
424
425
426
427
428
429
430
431
432
433
434
435
436
437
438
439
440
441
442
443
444
445
446
447
448
449
450
451
452
453
454
455
456
457
458
459
460
461
462
463
464
465
466
467
468
469
470
471
472
473
474
475
476
477
478
479
480
481
482
483
484
485
486
487
488
489
490
491
492
493
494
495
496
497
498
499
</DataArray>
<DataArray NumberOfComponents='1' type='Int8' Name='IsActive' format='ascii'>
1
0
1
1
0
1
0
0
1
1
0
1
1
1
1
0
0
0
1
0
0
1
0
1
0
0
0
0
1
0
1
1
0
0
0
1
0
0
1
0
0
1
1
0
1
1
1
1
0
1
0
1
0
1
1
0
1
1
0
1
1
0
1
1
0
1
1
0
0
0
0
1
0
0
1
1
1
0
1
1
1
0
0
0
0
1
0
0
0
0
1
0
0
0
0
1
1
1
0
0
0
1
0
1
1
0
0
0
1
0
0
1
1
0
0
0
1
0
1
0
1
0
0
0
0
1
0
1
0
0
1
1
0
0
0
0
0
0
0
1
0
0
1
0
0
1
1
0
0
0
0
1
0
0
0
1
0
1
1
1
1
1
0
0
1
0
0
1
1
1
1
0
0
1
0
0
1
0
1
0
0
0
0
0
1
0
0
0
1
1
0
0
0
0
1
0
0
1
0
0
0
0
1
0
1
0
1
0
0
1
0
0
0
0
0
0
0
0
0
1
0
0
1
0
0
0
1
0
1
0
0
0
1
0
0
1
0
1
1
0
1
0
0
0
0
0
1
0
0
1
0
0
0
0
0
1
0
1
1
1
1
1
0
0
0
0
1
1
0
1
0
1
0
1
0
1
0
0
0
1
0
0
0
0
0
1
0
1
0
0
1
0
0
1
1
1
0
1
0
1
1
0
0
0
1
0
0
0
1
0
0
1
1
0
0
1
0
1
0
1
0
0
1
1
1
0
1
0
0
0
1
1
1
0
1
0
1
0
1
0
0
1
0
0
1
0
1
0
1
0
0
0
1
0
1
1
1
0
0
0
0
0
0
0
1
1
1
1
1
1
0
1
0
0
0
0
1
0
0
0
0
0
1
0
1
0
0
1
1
1
0
1
0
0
0
1
0
1
0
1
0
1
0
1
0
0
1
0
1
0
0
0
0
1
0
0
0
0
1
0
0
1
1
0
0
0
0
1
0
0
0
1
0
0
1
1
0
0
0
1
0
0
0
0
0
0
0
0
0
1
1
0
0
1
1
0
1
0
0
0
1
0
1
0
1
0
0
0
1
0
1
1
1
1
0
0
1
0
0
1
1
0
1
0
1
0
0
0
0
0
0
0
1
1
0
0
1
0
1
1
</DataArray>
<DataArray NumberOfComponents='1' type='Int32' Name='ParticleTetID' format='ascii'>
70652
-61515
2342
61705
-58962
4680
-66558
-58952
70652
30007
-66561
98736
5905
60356
67412
-64917
-61508
-68099
8193
-66554
-59783
59869
-58961
81758
-64916
-70586
-61515
-61512
45574
-68100
62681
87720
-68099
-72204
-112396
64983
-66561
-66555
68486
-66557
-66585
57996
85315
-66560
67777
9557
27753
66011
-64920
63111
-64914
59437
-61515
29805
19262
-61512
78320
7393
-64917
75407
56838
-64914
63255
59458
-72213
30221
66454
-64917
-66552
-66551
-66552
7323
-112396
-64916
79724
72301
61646
-58965
63131
63130
69841
-72207
-64920
-66554
-58961
60354
-68099
-61515
-66557
-66558
54249
-64917
-72207
-66561
-61515
51679
25526
70597
-64919
-66548
-66561
204630
-58962
3808
5065
-58955
-61518
-59786
6361
-66554
-66554
2273
29540
-61518
-70584
-58965
87804
-64914
7868
-61518
47805
-61508
-64917
-66554
-62952
27970
-146594
62915
-58962
-66560
85828
7526
-64914
-66588
-61518
-59791
-61512
-72207
-112396
7526
-72210
-58965
56483
-61512
-58955
60373
63549
-58955
-59791
-156163
-66588
72740
-61515
-58955
-68105
56686
-66551
15674
52920
52219
67774
77297
-64916
-58958
74178
-72207
-64914
50950
61402
65650
36205
-66560
-58958
62930
-61511
-72203
10690
-61514
71213
-58958
-72213
-64919
-61512
-68099
98736
-68105
-64919
-68099
21663
7166
-58962
-61518
-59783
-63014
29196
-66558
-59786
65686
-59783
-66560
-58958
-58965
27393
-66557
61529
-59786
59042
-64914
-66551
5382
-63044
-72207
-64916
-68102
-66561
-59788
-61511
-63015
-61512
25809
-58955
-61518
38337
-61518
-58955
-66551
67043
-84717
63639
-61512
-66561
-136563
51694
-59785
-66551
53642
-61518
62921
63133
-68099
59538
-72204
-61521
-61512
-58958
-61518
63104
-68100
-66585
25395
-72204
-72207
-68103
-68102
-64917
73765
-61518
6312
31084
72686
43694
72884
-66554
-72207
-64913
-66551
50415
19217
-61521
8300
-64920
2213
-61514
43709
-61515
25554
-61517
-59786
-64916
71809
-64920
-64916
-66561
-64920
-61512
43539
-66564
29574
-58961
-58965
65000
-61512
-58955
19262
95184
71960
-66551
75289
-61518
7400
43995
-66555
-58952
-126563
62749
-66558
-61514
-68103
30201
-64919
-66561
7487
73595
-66555
-66551
3889
-61520
57996
-64920
67037
-58965
-58955
62923
65451
64128
-72207
61166
-66560
-59786
-61512
85786
30260
63658
-66557
36935
-66557
54824
-58968
57998
-58962
-58955
83084
-66551
-68105
51961
-61518
29792
-58958
58473
-61512
-61512
-66561
7940
-61515
51913
12700
65831
-68102
-64914
-68105
-58955
-66551
-68100
-58961
29317
63653
59247
82198
4691
64189
-61518
23851
-61511
-64920
-59788
-61514
67810
-66548
-61512
-68102
-66557
-66551
65613
-66551
2276
-112399
-58955
63098
63224
28642
-64919
9538
-61518
-61512
-66555
66473
-66552
47824
-61518
6949
-62951
7679
-66558
91741
-64920
-66551
68473
-66552
59927
-59786
-61508
-66561
-66588
10804
-61518
-66560
-61511
-58956
43709
-61518
-58965
152851
67051
-72210
-61509
-61518
-59791
65234
-66551
-126559
-61518
63653
-72207
-66554
2276
85664
-61512
-61518
-64913
72033
-66591
-64919
-58955
-66557
-61515
-59791
-59782
-66548
-64916
82391
73026
-66551
-66561
65296
82391
-72213
65345
-61515
-66552
-61512
100773
-64919
71213
-84632
9469
-66551
-66548
-61512
65210
-59783
45719
64315
92064
65829
-127033
-66551
72037
-64919
-62952
619
91768
-61512
78246
-64919
63335
-58965
-61518
-68105
-61518
-61508
-68105
-68106
63425
98736
-153844
-66551
71012
-66548
61797
66770
</DataArray>
<DataArray NumberOfComponents='3' type='Float32' Name='vels' format='ascii'>
0.572702 -0.032568 -0.001452
2.941750 0.743093 0.251364
0.107521 0.021604 -0.000233
0.339430 -0.033134 0.000824
4.011166 -0.808442 0.007605
0.248470 -0.030675 -0.001286
5.291425 0.658114 0.015048
1.176154 -0.254865 0.050298
0.150863 -0.007974 -0.000123
1.041113 -0.461384 0.000191
4.043204 0.516567 -0.062035
-0.001384 0.002048 0.015637
0.931858 0.111905 0.001344
0.261309 0.032382 0.002808
0.259340 0.000494 -0.000007
4.781214 -0.633258 0.223552
2.072237 0.492204 0.162694
1.841632 -0.359408 0.096556
1.466865 -0.365212 0.000284
4.618366 0.202199 0.374453
4.057130 0.583726 0.325260
0.957464 0.020746 0.000764
3.564954 -0.948543 -0.100939
0.002962 -0.000235 0.000915
5.081494 -0.728568 0.061442
2.709453 -0.571234 0.037044
2.890267 0.733475 0.271122
2.291721 0.555347 0.251364
0.030880 -0.007861 0.000019
0.600488 -0.175699 0.015577
0.246414 -0.000110 0.000104
-0.006934 -0.003374 -0.004804
3.213363 -0.761119 -0.003224
1.656845 -0.012767 0.231690
30.832558 8.406263 0.242404
0.892520 0.017381 0.005989
3.361597 0.485264 0.057820
5.072144 0.616756 0.203979
0.463249 0.132781 0.000011
4.822554 0.159554 -0.071552
0.163137 0.014290 0.007623
0.454011 0.052991 0.000194
0.027210 -0.105791 0.246156
3.522981 0.454183 -0.022000
1.744695 -0.023908 0.001349
0.600443 0.010643 -0.000099
1.791626 -0.043092 0.001573
0.002509 0.000006 0.000083
5.038774 -0.652624 0.013047
0.345469 0.003665 -0.002249
2.926561 -0.297746 0.581025
1.800659 -0.182287 0.003393
2.831417 0.656188 0.157502
0.665530 0.501580 -0.000425
-0.000974 0.000379 -0.000347
2.459462 0.587685 0.168515
0.531814 0.212415 0.000394
0.848919 -0.007304 0.000903
4.325011 -0.485807 0.474073
0.358616 0.104668 -0.000780
1.994142 0.754248 0.000108
3.009809 -0.323029 0.523657
1.240164 -0.344780 -0.000360
3.067499 -0.120040 -0.001290
1.625300 0.032475 -0.102624
1.045019 0.434972 -0.000410
0.702272 0.048797 0.000309
4.340364 -0.231916 0.365021
3.114425 0.129711 0.500337
4.121013 0.480241 0.104173
3.314428 0.340714 0.441299
0.562782 -0.001971 -0.000850
46.675339 14.517866 -0.076229
4.966831 -0.741021 0.103249
0.585921 0.181193 0.000511
0.410490 0.314578 -0.015778
0.041105 0.000029 -0.000281
4.058145 -0.762731 -0.344492
0.422259 0.002827 0.000679
0.047534 0.000080 0.000785
0.827645 0.160609 0.000638
2.447300 0.404613 0.136695
4.955756 -0.666599 0.026369
5.270291 0.597518 0.093265
3.790543 -0.755850 0.004429
0.678658 0.080694 0.003570
3.198346 -0.576469 0.091015
2.891380 0.658313 0.072510
4.708169 0.714293 0.041555
5.286538 0.662013 0.016323
0.335001 -0.212046 -0.002470
4.335292 -0.493674 0.469468
2.376679 0.415278 0.303110
3.978817 0.514039 -0.035953
2.925429 0.736889 0.253986
0.767109 -0.492237 -0.004423
0.116532 -0.159480 -0.019768
1.402782 -0.120101 0.001393
4.657912 -0.665986 -0.017331
0.402313 0.016930 0.069481
4.122142 0.520750 -0.092827
1.291655 -1.348107 0.065821
4.068510 -0.838672 0.002245
-0.002577 -0.000008 -0.001104
0.008557 0.001378 -0.000342
3.529941 -0.711878 0.030954
2.701473 0.675651 0.006233
5.068028 0.739679 0.098900
0.007904 0.001287 -0.000841
5.282705 0.607003 0.090999
4.672356 0.220515 0.340548
0.001008 0.001575 0.001005
0.439033 0.166794 -0.000450
2.719856 0.689432 0.014472
1.875758 -0.371275 0.170103
3.526443 -0.813141 -0.314200
-0.002480 -0.001168 0.000971
2.977139 -0.317598 0.549789
0.056775 0.016362 -0.000204
2.856396 0.655576 -0.021302
2.551069 0.355376 -0.035620
1.562766 0.369950 0.099079
5.097804 -0.739710 -0.004191
5.187976 0.534039 0.131804
2.184550 -0.057329 -0.002896
-0.006620 -0.003131 -0.000060
0.063052 -0.112684 0.126129
0.382877 0.000609 0.000053
3.941319 -0.939718 0.019078
3.094111 0.466580 0.051646
-0.056597 -0.021262 -0.000140
0.009989 -0.000001 -0.000814
2.947628 -0.317004 0.559127
3.315421 0.229466 0.303735
3.114699 0.812712 -0.006021
3.981705 0.784788 -0.179278
2.397503 0.576482 0.045044
2.262234 -0.103763 0.199135
46.605008 17.425592 -0.121316
0.020536 -0.000051 -0.000559
2.453705 0.036037 -0.002453
3.273935 -0.703619 -0.146819
0.302336 0.023808 0.000015
2.267504 0.537684 0.170558
3.031390 -0.650702 0.168210
0.494016 -0.144362 -0.001965
1.396528 0.395699 0.001043
3.485382 -0.705401 0.047642
4.244217 0.718171 -0.088138
0.078912 -0.035162 -0.038296
3.309975 0.272851 0.268077
2.636100 -0.418553 -0.046687
3.143853 0.750221 0.009430
3.065246 -0.673178 0.198509
4.241233 -0.744797 0.007929
1.819618 0.092973 -0.003518
3.991307 0.425104 0.155119
0.856115 0.027371 -0.004995
0.275094 0.382648 -0.000088
0.258874 -0.189322 0.000955
0.700634 -0.004857 0.000372
1.460827 -0.159873 -0.000075
4.864729 -0.743999 0.144699
4.023324 -0.834694 0.046985
0.135043 0.004726 0.000654
2.333838 0.209392 0.090805
2.983754 -0.330680 0.536378
-0.008880 0.010309 0.000794
0.041683 0.000130 -0.000778
0.362371 0.103228 -0.000270
0.992593 0.113085 -0.002292
2.912069 0.446903 0.058844
4.195891 -0.823559 0.007726
0.603155 -0.005918 -0.002554
3.421469 0.801853 0.232091
1.914013 0.373947 0.333840
-0.001841 0.000476 0.000116
3.917611 0.961390 0.066384
0.040644 -0.000093 0.000044
3.998002 -0.839101 0.052347
2.110943 0.365026 -0.216448
4.558290 -0.718325 -0.153658
2.517882 0.602668 0.087560
2.602964 -0.618944 0.038887
-0.003175 0.002454 -0.000263
3.746715 -0.624846 0.010220
4.537418 -0.639668 -0.001990
2.525898 -0.494562 0.096555
1.435317 1.118359 0.000742
0.056284 0.009085 0.000143
4.022468 -0.876011 0.007542
3.114020 0.835475 0.004567
4.032579 0.575637 0.282121
1.501351 -0.039478 -0.000088
0.331726 0.075231 -0.000318
5.273003 0.663612 0.018242