<VTKFile type='UnstructuredGrid' version='1.0' byte_order='LittleEndian' header_type='UInt64'>
<UnstructuredGrid>
<Piece NumberOfCells='500' NumberOfPoints='500'>
<Points>
<DataArray NumberOfComponents='3' type='Float32' Name='Position' format='ascii'>
676.320129 182.262999 -4.657633
1029.059357 188.209033 -16.808274
-53.939663 377.510554 -6.363130
1014.614401 233.032403 -6.431958
1029.278797 232.304881 -20.074967
-62.612776 110.576830 -2.601195
1029.253611 152.748402 -21.930599
1028.999307 227.831264 -4.645276
654.255143 185.348540 -3.983541
472.693944 252.674531 -3.323164
1029.136333 154.676584 -29.201451
89.633788 177.722334 -26.329981
328.959154 230.644808 -6.140065
747.880438 137.893561 -4.271094
649.149427 216.774540 -4.352114
1029.359902 252.147987 -15.006536
1029.119520 187.784713 -4.743284
1029.087137 262.783777 -11.868301
529.811584 247.727095 -6.239731
1029.193912 138.980634 -19.474711
1029.180406 166.324271 -12.000646
895.975171 102.351827 -4.485474
1029.076102 228.539705 -26.569211
460.842869 396.346518 -3.608093
1029.103216 249.678682 -17.080837
1028.990499 208.533237 -16.447437
1029.196326 188.604010 -17.100767
1029.136178 186.426719 -8.694585
307.815297 304.007746 -37.651274
1029.023483 265.307023 -7.267714
723.204707 215.041845 -12.080779
549.685063 121.545749 -5.526306
1029.231420 262.000992 -8.732897
1029.083701 205.611464 -10.271489
422.306524 386.274159 -3.543799
1028.995048 200.728172 -8.454059
1029.074164 155.183680 -27.112406
1029.321351 153.281068 -16.377951
797.841931 179.950025 -31.549181
1028.982668 142.206514 -26.628187
1028.977491 138.452308 -6.168599
783.411862 142.995208 -2.642098
605.800815 59.264389 -36.277673
1029.147816 142.387907 -29.713177
846.419374 212.695429 -17.711160
-182.643313 220.618217 -37.641348
546.140195 41.767982 -29.568439
1029.016275 203.193862 -10.300218
1029.339088 256.934836 -22.392138
803.032901 190.323866 -6.840954
1029.096555 251.048780 -9.627166
1028.976346 227.605951 -4.622459
1029.044092 190.888146 -17.070591
379.667878 285.193187 -35.583562
-492.051001 186.829093 -2.248547
1029.140656 185.673421 -7.749712
723.246390 321.210226 -4.570870
-99.021540 181.320197 -31.061933
1029.281029 251.617953 -16.541149
809.651856 60.611234 -11.726128
1029.020888 154.537749 -28.918852
1029.144067 251.298274 -9.433218
1029.034549 273.754103 -8.068011
1029.092811 199.203232 -10.424503
1029.099325 207.296483 -29.207397
386.600804 263.587487 -27.604588
812.263502 169.554988 -36.534435
1029.003818 260.121252 -19.353480
1029.219105 141.565174 -7.227381
1029.030335 140.847806 -10.327024
1029.210581 151.177371 -10.058554
-56.207597 199.572405 -34.400204
422.743582 386.163063 -3.664093
1029.370072 249.889205 -17.917543
680.473803 222.259472 -3.675849
623.274718 214.294515 -30.923494
1028.990420 203.263316 -27.345185
1029.088630 226.583231 -26.791639
688.698249 192.141235 -7.882036
700.340162 182.395367 -13.193746
1028.977143 150.658634 -3.922269
1029.075219 199.084609 -13.594524
1029.306689 250.607125 -21.757990
1029.275264 140.263570 -17.033113
1029.110714 228.986199 -22.802082
797.634562 145.269321 -4.018016
1029.118126 264.933374 -10.231840
1029.150350 191.275146 -16.086105
1029.304192 140.303527 -20.675616
1029.296586 152.742705 -21.728450
536.735234 197.776883 -33.442340
1029.317875 251.504023 -16.457303
1029.142010 196.584875 -14.344229
1029.292726 155.217574 -29.018318
1029.213633 188.409014 -16.858498
542.884563 205.228026 -1.784248
397.863643 67.514712 0.024426
1029.083866 230.763947 -4.547148
1029.337316 249.376128 -23.538960
1029.006290 140.497051 -6.606818
1029.101994 154.322595 -29.456101
285.527658 374.712620 -12.651096
1029.023898 231.951962 -20.916878
-432.438953 176.840092 -26.668282
-248.884310 266.417875 -19.995857
1029.244989 230.300666 -9.687840
1029.187334 191.618517 -20.456878
1029.318341 165.992030 -17.959244
-259.017598 265.813507 -19.964188
1028.977543 140.299234 -17.001177
1029.189046 140.141349 -19.420439
-501.184143 192.647873 -9.122017
513.003317 354.836628 -4.966329
1029.088515 191.145182 -20.070877
1029.119364 214.611647 -7.296110
1029.162892 231.219450 -28.952026
439.336737 74.045166 -21.090338
1029.069190 250.884586 -9.429735
-110.192220 386.604425 -5.602766
1029.161448 191.361488 -22.229912
283.896276 147.927816 -36.105779
1029.017562 182.407524 -4.431521
1029.203531 259.133438 -14.979347
1029.386622 140.349597 -17.517165
823.098087 212.685268 -8.839563
122.308184 222.312713 -33.763796
377.639320 41.467018 -2.348081
712.139633 212.639553 -7.082736
1029.257480 229.715106 -21.899225
1029.221177 141.549552 -28.168380
667.278708 67.535986 -5.121481
-139.079365 214.835461 -5.694833
1029.184340 250.622315 -9.354484
1029.115912 138.104862 -11.754595
1029.020587 188.147850 -23.823336
1029.259073 166.069571 -28.080659
1029.121508 190.466885 -8.136797
1029.124786 206.293152 -17.948811
422.237684 386.356569 -3.913509
-137.953591 213.632676 -4.150122
1028.976683 198.275371 -20.143932
1029.216848 231.067388 -27.441933
1007.261840 175.988547 -36.464260
1029.134359 189.002731 -8.993922
1028.982673 228.031097 -11.093356
1029.039157 263.371907 -6.178223
1029.066686 123.795126 -20.973499
1029.064718 230.128527 -9.890916
1029.261154 171.158954 -29.184869
381.472231 52.266270 -10.001146
1029.152980 136.636137 -10.985803
1028.980528 254.689233 -4.344013
1029.072949 189.720784 -13.672791
1029.126679 229.823613 -11.368067
1029.116635 266.379400 -22.171789
1029.076227 263.962610 -11.302050
1029.194718 140.926378 -10.790143
363.805086 64.510089 -25.139642
522.831654 163.774822 -2.581580
570.274033 182.729687 -5.472534
967.475495 219.636133 -12.800812
1029.082559 267.461904 -10.887103
1029.165082 249.277036 -18.436584
1029.236544 229.448986 -17.039859
608.614235 109.332841 -1.895623
1029.046234 203.253687 -14.894425
1029.162656 250.509853 -9.214404
363.068138 74.007093 -20.900178
563.243679 4.239288 -13.328727
740.864484 45.268527 -12.501089
290.652804 356.101440 -16.647414
1028.993105 141.600352 -27.791848
1029.312762 229.305865 -15.668280
878.929545 220.305950 -3.989218
1029.207264 189.143456 -11.935037
1029.079315 195.523317 -11.910939
-521.923873 274.715819 -37.177513
1029.232534 189.628657 -19.390733
1029.052152 201.313464 -9.953693
1029.259166 229.986926 -17.220021
1029.103068 198.247599 -27.320136
1028.989402 252.799752 -25.582654
1029.160703 187.417509 -7.500706
1029.086343 261.955222 -10.171866
90.214112 179.704255 -26.203576
1029.196213 265.861447 -23.563606
1029.060599 250.741090 -23.158830
1028.978047 263.287548 -11.028804
663.207198 166.577421 -17.405614
-87.718951 317.664246 -3.498235
1029.184939 230.710144 -21.207296
1029.139103 188.001014 -24.091368
1029.296602 165.116357 -11.684768
771.182512 212.663064 -28.661125
367.637027 320.420391 -2.315567
1029.246652 152.097065 -21.274371
1029.238727 166.185289 -18.220476
731.540037 38.581564 -12.457552
1029.317852 166.310171 -11.196974
1029.074538 141.753036 -28.112455
1028.978325 226.681346 -19.098767
1029.070636 229.001683 -26.946571
447.246817 274.487901 -9.372787
1029.076318 154.088305 -26.648681
1029.022982 123.593200 -7.574731
1029.134247 165.425647 -17.916420
850.253685 104.450818 -4.148834
1028.993193 251.027087 -9.360745
1029.191202 138.906774 -12.100933
-21.640948 211.102245 -3.073898
790.843373 212.671420 -15.948524
1028.987540 207.207378 -15.083185
1029.256612 249.121303 -18.632310
1029.083419 261.565138 -18.628778
1029.186294 141.644426 -26.875536
1029.125480 163.915666 -20.865933
1029.067550 187.903334 -11.437351
780.158774 212.668376 -28.398868
1028.977323 191.701105 -10.560304
136.671391 158.123667 -35.248118
1029.130325 227.908705 -11.363294
1029.161652 187.907923 -23.740786
799.429832 82.831185 -27.857736
1028.994581 191.539402 -20.807746
1029.089074 228.582486 -11.134421
1029.032689 139.337093 -11.491075
930.818106 181.901088 -26.586272
372.620258 58.008078 -18.904551
1028.977700 123.771931 -20.853404
1029.118109 188.779216 -7.828990
1029.058995 154.448558 -27.720059
431.909000 254.555876 0.000849
558.407484 216.797745 -35.654779
1029.130825 162.909080 -15.085360
1029.287445 139.578995 -9.591735
551.696658 386.717184 -5.624834
1029.138655 191.579951 -20.417899
776.941211 219.758511 -26.115820
704.591999 180.824017 -19.861452
1029.215009 263.230013 -9.648705
1029.156459 142.382262 -28.460508
1029.034368 200.459019 -7.800582
1029.114565 185.116480 -26.917102
1029.027159 188.449629 -8.741109
1029.088616 227.990706 -18.525192
1028.995233 188.013687 -23.848952
765.031567 192.170510 -30.103184
1028.976192 263.358560 -7.415076
1028.983311 138.661981 -6.366192
648.375490 47.573459 -28.100514
1029.056723 204.324582 -9.094241
1028.993735 205.652109 -16.980837
1029.000713 266.680231 -14.841078
1029.019230 264.554280 -17.341043
1029.020443 260.195748 -17.082613
793.090906 173.594891 -5.958529
1029.136234 190.187559 -24.030354
126.850338 252.159881 -30.560959
277.465367 260.641524 -36.987949
676.111131 184.740102 -5.512766
316.664928 181.011714 -17.391968
695.825647 222.773046 -3.794751
1028.992364 140.724015 -18.226469
1029.094447 201.959905 -15.364515
1029.288175 250.532170 -11.240318
1028.982169 140.578835 -8.523235
439.491061 54.947164 -31.489788
-499.220573 188.899353 -25.307981
1028.991480 184.793799 -26.995024
137.710068 204.873210 -4.341988
1029.263509 251.378450 -21.648380
-406.034698 125.799821 -36.158340
1029.055936 181.494904 -18.997324
311.262669 150.308718 -10.420815
1029.168282 189.604127 -16.148881
605.195726 169.199697 -26.449538
1029.060040 188.469406 -26.483053
1029.156936 166.796368 -19.504463
1029.062033 251.332961 -17.754174
963.564006 219.972746 -19.867458
1029.058731 251.612451 -21.507725
1029.209896 251.530546 -18.765869
1029.226357 141.141672 -26.962504
1029.035831 258.818714 -21.723534
1029.137454 191.840832 -7.148699
775.558679 76.110847 -27.509536
1028.992617 143.275617 -33.765066
533.163897 361.026388 -3.786072
1029.052570 231.238678 -23.593649
1028.981230 228.890302 -26.848342
1029.093284 251.035262 -4.689537
1029.019086 186.784368 -8.920433
1029.062089 229.606706 -11.842059
-492.311447 185.632883 -4.408485
561.435196 10.395550 -29.260394
1029.120593 200.514852 -29.478235
1029.055737 139.105929 -11.640209
688.034960 87.420096 -32.546412
1029.084872 192.212440 -20.238293
-157.076694 212.903701 -5.268387
644.538078 181.374749 -12.412503
1028.996143 151.715862 -17.273462
1028.994285 231.174448 -6.028807
411.591621 245.039275 -3.410562
607.695925 214.754378 -4.698341
1029.256785 153.702561 -22.613375
1029.274629 189.295571 -19.419725
1028.980026 266.824802 -15.162600
1029.044847 141.332420 -27.876488
1029.096721 252.600993 -23.946544
1029.235200 153.879772 -27.568629
-202.708090 213.613301 -36.168475
1029.187861 266.035594 -23.100899
1029.273908 151.732683 -17.452964
1029.014351 139.407205 -11.818104
46.895335 222.651274 -4.688020
1028.984348 184.826144 -32.941579
815.717664 148.506591 -3.379688
1028.980649 249.835231 -21.175183
977.863762 189.152945 -11.030298
1029.188393 230.634547 -28.444128
1029.080799 230.197874 -9.454699
793.472228 213.361579 -30.965877
1029.079907 272.075715 -6.574468
1029.065069 166.705688 -29.107270
1029.008500 206.564596 -15.792315
715.043558 157.837148 -2.358696
1029.067852 141.603446 -27.818469
1029.069269 165.176413 -18.524279
1029.133526 191.427176 -10.540003
506.806936 149.536452 -2.630551
483.965700 103.760173 -4.424887
725.101188 36.477433 -25.764718
1029.220334 140.786220 -22.054353
498.371608 214.185154 -34.782259
1029.175277 141.288491 -25.554240
507.162838 171.584498 -30.333656
1028.983994 232.598256 -35.049830
743.127980 137.107522 -4.538209
1029.228811 229.056026 -21.423484
1029.263211 229.727649 -8.828450
601.075976 180.333439 -29.480644
1029.255636 140.847097 -10.347196
1029.144526 262.952322 -22.063480
1013.510671 142.140641 -32.754133
1029.093018 189.431262 -22.359625
355.603074 329.902658 -2.512587
1029.246426 229.393185 -16.587050
1029.139657 191.405911 -25.144298
1029.093379 191.825392 -10.545870
1029.146176 187.848913 -9.040993
1029.240783 141.515258 -27.379984
-160.123055 375.653115 -6.268623
1029.025452 191.423095 -15.451683
691.503514 350.164650 -5.654989
351.166895 232.017854 -26.570540
719.756659 33.484181 -10.240830
1029.083022 262.773429 -19.497108
1029.086616 250.371744 -7.973811
1029.037398 262.781573 -26.167907
1029.137774 227.226450 -10.712844
1029.144133 141.824809 -12.094427
1028.988883 264.995240 -7.280992
1029.072346 230.843770 -24.585391
672.314826 23.516850 -28.818371
742.537825 40.892818 -11.838721
1029.022948 190.328694 -22.596931
383.721218 264.320205 -20.024708
-90.038872 106.626309 -26.074965
780.584209 142.483855 -5.909421
1028.999467 189.009184 -23.377562
334.680926 224.653341 -5.410574
1029.220458 185.847851 -11.251454
1029.284457 252.216365 -23.460776
1029.129728 164.701498 -20.667179
1029.238084 189.379812 -19.425016
1029.118967 255.401170 -11.213091
1028.998408 152.824558 -6.281295
1029.029557 189.622144 -9.059488
1029.097936 262.061277 -16.866182
1029.292222 139.341657 -20.537809
1029.028994 140.404660 -8.938870
866.929480 79.056627 -6.670580
1029.005844 140.255329 -9.204981
-497.816652 190.821685 -14.874992
422.364659 386.234165 -5.736371
1029.087163 227.049554 -11.271518
814.621594 188.588472 -19.315207
1029.258975 272.463903 -17.588611
69.852079 30.151763 -11.742240
1029.284670 252.620977 -25.589771
-235.909693 213.193208 -37.512676
1029.146218 191.360374 -20.366622
1029.105913 190.489401 -8.928432
1028.984297 152.167014 -15.410153
561.658230 197.873405 -34.604802
1028.977495 139.629717 -6.673073
213.756969 244.755842 -34.912697
1029.217982 189.239624 -24.197824
-32.557836 205.648408 -6.036369
805.361828 212.678350 -9.199199
-145.241878 18.919607 -26.220081
1029.331110 152.525238 -20.330589
124.143429 231.172982 -36.301445
1029.187656 251.079710 -22.841616
1029.318670 140.222168 -7.695200
631.543997 170.540219 -6.158460
1029.189180 152.203793 -9.786901
1028.984107 199.209111 -10.400203
1029.020630 165.105675 -19.151886
1029.009679 191.458190 -6.372217
1029.190473 154.549839 -27.821762
1029.119299 138.490448 -7.169665
-8.314459 358.014334 -12.553912
1028.992859 189.529076 -21.214293
1029.200837 141.506837 -28.207214
1029.122687 189.627835 -12.980992
1029.110689 230.414989 -7.779148
312.727806 143.143261 -9.648768
1029.067094 190.358882 -21.601804
1029.149717 228.931587 -26.989552
549.491044 52.444158 -35.056372
747.991280 329.638835 -6.581298
1029.126705 199.221430 -20.196635
1028.978204 191.616251 -5.973972
1029.154759 191.002642 -23.581673
1029.118563 166.532241 -28.691753
873.978790 221.486642 -4.121962
1029.114841 139.297521 -11.567960
411.558032 245.110662 -3.276845
1029.136270 191.163161 -23.318089
775.567082 50.807241 -10.625588
1029.105731 205.069380 -15.635904
1028.991614 151.329544 -19.248305
-498.138787 191.147950 -14.838116
372.583227 54.707716 -20.816006
1029.120078 187.702432 -9.310782
1029.163817 184.148452 -21.974278
1029.312471 248.234907 -9.873754
614.487663 141.482197 -33.381373
1029.328978 136.843542 -18.881703
1029.094399 248.978200 -25.149447
1029.222021 229.310936 -11.098716
1029.172426 140.413768 -21.018412
1029.112981 188.285432 -16.581198
1029.118423 167.132526 -29.081801
1029.032436 162.086172 -8.090933
1029.041121 142.217793 -6.243565
1029.236015 251.014534 -17.909152
500.052047 211.922419 -35.240364
634.493855 239.958245 -1.852987
1028.977966 139.590846 -10.513834
1029.013381 155.959542 -27.775785
732.964914 178.876108 -26.550813
377.655425 257.043002 -33.552417
1029.030631 206.195502 -29.210784
1029.020288 191.442614 -6.282925
1029.122752 191.332256 -15.803695
1029.022018 152.098673 -9.721617
1028.979961 185.456998 -7.675500
352.241114 10.204688 -28.701013
1029.034602 250.235039 -24.035320
1028.995501 195.148381 -11.832256
372.583433 59.776160 -12.460715
-100.061454 219.526101 -6.240646
1029.121923 139.486113 -10.572183
1028.993989 138.911566 -6.091481
1029.016906 187.725508 -9.274138
1029.048186 204.788225 -27.515886
1029.281845 164.317919 -10.568704
316.570717 307.163014 -37.791501
873.083717 289.676828 -5.910759
124.782357 228.809227 -36.167976
771.195187 48.757979 -8.745785
400.884835 273.474580 -5.355285
1029.080642 139.809185 -8.448109
726.430538 164.527230 -2.331781
1029.190996 251.339016 -24.093351
823.576133 212.679033 -8.359305
466.995936 220.780679 -18.878061
168.343032 213.921433 -37.127932
1029.091622 188.026010 -8.426024
569.342418 157.289417 -1.573856
1029.233175 246.857364 -23.058501
776.205429 341.485208 -26.224450
1029.182799 226.565878 -26.855878
1029.101006 187.965896 -24.494495
1029.001557 265.025473 -24.043119
1029.035127 184.774956 -22.472807
1029.077783 191.459570 -6.368736
1029.147602 265.728428 -24.808093
1028.979811 266.614511 -21.884949
870.104560 320.079611 -24.183776
89.935351 178.760356 -26.229899
378.075462 7.721897 -0.963226
1029.072314 141.391280 -11.738849
955.176173 142.448732 -5.408329
1029.042814 142.222528 -5.287601
866.507838 287.693023 -6.661540
1028.976670 203.821537 -17.213312
</DataArray>
</Points>
<PointData>
<DataArray NumberOfComponents='1' type='Int32' Name='ParticleType' format='ascii'>
1
1
1
1
1
1
1
1
1
1
1
1
1
1
1
1
1
1
1
1
1
1
1
1
1
1
1
1
1
1
1
1
1
1
1
1
1
1
1
1
1
1
1
1
1
1
1
1
1
1
1
1
1
1
1
1
1
1
1
1
1
1
1
1
1
1
1
1
1
1
1
1
1
1
1
1
1
1
1
1
1
1
1
1
1
1
1
1
1
1
1
1
1
1
1
1
1
1
1
1
1
1
1
1
1
1
1
1
1
1
1
1
1
1
1
1
1
1
1
1
1
1
1
1
1
1
1
1
1
1
1
1
1
1
1
1
1
1
1
1
1
1
1
1
1
1
1
1
1
1
1
1
1
1
1
1
1
1
1
1
1
1
1
1
1
1
1
1
1
1
1
1
1
1
1
1
1
1
1
1
1
1
1
1
1
1
1
1
1
1
1
1
1
1
1
1
1
1
1
1
1
1
1
1
1
1
1
1
1
1
1
1
1
1
1
1
1
1
1
1
1
1
1
1
1
1
1
1
1
1
1
1
1
1
1
1
1
1
1
1
1
1
1
1
1
1
1
1
1
1
1
1
1
1
1
1
1
1
1
1
1
1
1
1
1
1
1
1
1
1
1
1
1
1
1
1
1
1
1
1
1
1
1
1
1
1
1
1
1
1
1
1
1
1
1
1
1
1
1
1
1
1
1
1
1
1
1
1
1
1
1
1
1
1
1
1
1
1
1
1
1
1
1
1
1
1
1
1
1
1
1
1
1
1
1
1
1
1
1
1
1
1
1
1
1
1
1
1
1
1
1
1
1
1
1
1
1
1
1
1
1
1
1
1
1
1
1
1
1
1
1
1
1
1
1
1
1
1
1
1
1
1
1
1
1
1
1
1
1
1
1
1
1
1
1
1
1
1
1
1
1
1
1
1
1
1
1
1
1
1
1
1
1
1
1
1
1
1
1
1
1
1
1
1
1
1
1
1
1
1
1
1
1
1
1
1
1
1
1
1
1
1
1
1
1
1
1
1
1
1
1
1
1
1
1
1
1
1
1
1
1
1
1
1
1
1
1
1
1
1
1
1
1
1
1
1
1
1
1
1
1
1
1
1
1
1
1
1
1
1
1
1
1
1
1
1
1
1
1
1
</DataArray>
<DataArray NumberOfComponents='1' type='Int32' Name='ParticleID' format='ascii'>
0
1
2
3
4
5
6
7
8
9
10
11
12
13
14
15
16
17
18
19
20
21
22
23
24
25
26
27
28
29
30
31
32
33
34
35
36
37
38
39
40
41
42
43
44
45
46
47
48
49
50
51
52
53
54
55
56
57
58
59
60
61
62
63
64
65
66
67
68
69
70
71
72
73
74
75
76
77
78
79
80
81
82
83
84
85
86
87
88
89
90
91
92
93
94
95
96
97
98
99
100
101
102
103
104
105
106
107
108
109
110
111
112
113
114
115
116
117
118
119
120
121
122
123
124
125
126
127
128
129
130
131
132
133
134
135
136
137
138
139
140
141
142
143
144
145
146
147
148
149
150
151
152
153
154
155
156
157
158
159
160
161
162
163
164
165
166
167
168
169
170
171
172
173
174
175
176
177
178
179
180
181
182
183
184
185
186
187
188
189
190
191
192
193
194
195
196
197
198
199
200
201
202
203
204
205
206
207
208
209
210
211
212
213
214
215
216
217
218
219
220
221
222
223
224
225
226
227
228
229
230
231
232
233
234
235
236
237
238
239
240
241
242
243
244
245
246
247
248
249
250
251
252
253
254
255
256
257
258
259
260
261
262
263
264
265
266
267
268
269
270
271
272
273
274
275
276
277
278
279
280
281
282
283
284
285
286
287
288
289
290
291
292
293
294
295
296
297
298
299
300
301
302
303
304
305
306
307
308
309
310
311
312
313
314
315
316
317
318
319
320
321
322
323
324
325
326
327
328
329
330
331
332
333
334
335
336
337
338
339
340
341
342
343
344
345
346
347
348
349
350
351
352
353
354
355
356
357
358
359
360
361
362
363
364
365
366
367
368
369
370
371
372
373
374
375
376
377
378
379
380
381
382
383
384
385
386
387
388
389
390
391
392
393
394
395
396
397
398
399
400
401
402
403
404
405
406
407
408
409
410
411
412
413
414
415
416
417
418
419
420
421
422
423
424
425
426
427
428
429
430
431
432
433
434
435
436
437
438
439
440
441
442
443
444
445
446
447
448
449
450
451
452
453
454
455
456
457
458
459
460
461
462
463
464
465
466
467
468
469
470
471
472
473
474
475
476
477
478
479
480
481
482
483
484
485
486
487
488
489
490
491
492
493
494
495
496
497
498
499
</DataArray>
<DataArray NumberOfComponents='1' type='Int8' Name='IsActive' format='ascii'>
1
0
1
1
0
1
0
0
1
1
0
1
1
1
1
0
0
0
1
0
0
1
0
1
0
0
0
0
1
0
1
1
0
0
0
0
0
0
1
0
0
1
1
0
0
1
1
0
0
1
0
0
0
1
1
0
1
1
0
1
0
0
0
0
0
1
1
0
0
0
0
1
0
0
1
1
0
0
0
1
0
0
0
0
0
1
0
0
0
0
1
0
0
0
0
1
0
0
0
0
0
1
0
1
1
0
0
0
1
0
0
1
1
0
0
0
1
0
1
0
1
0
0
0
0
1
0
0
0
0
1
1
0
0
0
0
0
0
0
1
0
0
1
0
0
0
0
0
0
0
0
0
0
0
0
0
0
1
1
1
1
0
0
0
1
0
0
1
1
1
1
0
0
1
0
0
1
0
0
0
0
0
0
0
1
0
0
0
1
1
0
0
0
0
1
0
0
1
0
0
0
0
1
0
0
0
1
0
0
1
0
0
0
0
0
0
0
0
0
1
0
0
1
0
0
0
1
0
0
0
0
0
1
0
0
1
0
1
1
0
0
0
0
0
0
0
0
0
0
1
0
0
0
0
0
1
0
1
1
1
1
1
0
0
0
0
1
1
0
1
0
1
0
1
0
1
0
0
0
1
0
0
0
0
0
1
0
1
0
0
0
0
0
1
1
0
0
1
0
1
1
0
0
0
1
0
0
0
0
0
0
1
0
0
0
1
0
1
0
1
0
0
1
0
0
0
1
0
0
0
1
1
1
0
1
0
1
0
1
0
0
1
0
0
1
0
1
0
0
0
0
0
1
0
1
1
1
0
0
0
0
0
0
0
1
1
0
1
1
1
0
1
0
0
0
0
0
0
0
0
0
0
1
0
0
0
0
1
0
1
0
1
0
0
0
1
0
1
0
1
0
1
0
1
0
0
1
0
0
0
0
0
0
1
0
0
0
0
1
0
0
1
1
0
0
0
0
1
0
0
0
1
0
0
0
0
0
0
0
1
0
0
0
0
0
0
0
0
0
1
1
0
0
1
1
0
0
0
0
0
1
0
0
0
1
0
0
0
0
0
1
1
1
1
0
0
1
0
0
1
1
0
1
0
1
0
0
0
0
0
0
0
1
1
0
0
1
0
1
0
</DataArray>
<DataArray NumberOfComponents='1' type='Int32' Name='ParticleTetID' format='ascii'>
63128
-61515
739
60230
-58962
17874
-66558
-58952
63146
52722
-66561
98736
36919
62030
65989
-64917
-61508
-68099
57853
-66554
-59783
58700
-58961
81758
-64916
-70586
-61515
-61512
32343
-68100
63023
74071
-68099
-72204
-112396
-72204
-66561
-66555
63176
-66557
-66585
62118
73943
-66560
-69092
9520
68790
-72204
-64920
63165
-64914
-58952
-61515
37707
19262
-61512
67142
15674
-64917
63526
-66561
-64914
-68100
-72203
-72213
82654
57615
-64917
-66552
-66551
-66552
17171
-112396
-64916
62912
61214
-72213
-58965
-63131
63112
-66549
-72207
-64920
-66554
-58961
64153
-68099
-61515
-66557
-66558
68433
-64917
-72207
-66561
-61515
61596
-172329
-58952
-64919
-66548
-66561
33700
-58962
3810
6379
-58955
-61518
-59786
6343
-66554
-66554
2273
67700
-61518
-70584
-58965
87804
-64914
10802
-61518
95556
-61508
-64917
-66554
-62952
27970
-146594
-63024
-58962
-66560
64603
17030
-64914
-66588
-61518
-59791
-61512
-72207
-112396
17030
-72210
-58965
74213
-61512
-58955
-68096
-66594
-58955
-59791
-156163
-66588
-64911
-61515
-58955
-68105
-68099
-66551
85238
60966
79867
61637
-68099
-64916
-58958
69176
-72207
-64914
85994
61384
63599
30068
-66560
-58958
57296
-61511
-72203
10690
-61514
-72204
-58958
-72213
-64919
-61512
-68099
98736
-68105
-64919
-68099
57786
23150
-58962
-61518
-59783
-63014
30530
-66558
-59786
66244
-59783
-66560
-58958
-58965
121998
-66557
-66588
-59786
57079
-64914
-66551
19765
-63044
-72207
-64916
-68102
-66561
-59788
-61511
-63015
-61512
99715
-58955
-61518
74228
-61518
-58955
-66551
59932
-84717
-66594
-61512
-66561
-136563
63987
-59785
-66551
61454
-61518
63010
65365
-68099
-66560
-72204
-61521
-61512
-58958
-61518
-63212
-68100
-66585
72986
-72204
-72207
-68103
-68102
-64917
76718
-61518
91148
30041
63128
43694
62892
-66554
-72207
-64913
-66551
87301
19217
-61521
41582
-64920
2213
-61514
43709
-61515
71110
-61517
-59786
-64916
77713
-64920
-64916
-66561
-64920
-61512
71166
-66564
70110
-58961
-58965
-64910
-61512
-58955
19261
61754
-72213
-66551
62366
-61518
7507
69521
-66555
-58952
-126563
67412
-66558
-61514
-68103
-66560
-64919
-66561
7505
-68105
-66555
-66551
30260
-61520
64208
-64920
64985
-58965
-58955
63049
-68096
-59791
-72207
59329
-66560
-59786
-61512
69104
52922
66125
-66557
51695
-66557
68485
-58968
62030
-58962
-58955
79916
-66551
-68105
71348
-61518
32852
-58958
-61518
-61512
-61512
-66561
13610
-61515
58843
43678
66119
-68102
-64914
-68105
-58955
-66551
-68100
-58961
70232
63599
-61518
82198
10055
62119
-61518
41276
-61511
-64920
-59788
-61514
-64914
-66548
-61512
-68102
-66557
-66551
63615
-66551
-19215
-112399
-58955
63061
-68102
34114
-64919
7487
-61518
-61512
-66555
56751
-66552
91578
-61518
38
-62951
18352
-66558
92064
-64920
-66551
57115
-66552
-72203
-59786
-61508
-66561
-66588
22702
-61518
-66560
-61511
-58956
45131
-61518
-58965
68795
70939
-72210
-61509
-61518
-59791
57296
-66551
-126559
-61518
63635
-72207
-66554
-19215
-85665
-61512
-61518
-64913
56589
-66591
-64919
-58955
-66557
-61515
-59791
-59782
-66548
-64916
64762
70922
-66551
-66561
65278
82391
-72213
-61508
-61515
-66552
-61512
42386
-64919
-72203
-84632
24157
-66551
-66548
-61512
-72213
-59783
28061
77150
91184
63635
-127033
-66551
59328
-64919
-62952
52369
91823
-61512
72038
-64919
63262
-58965
-61518
-68105
-61518
-61508
-68105
-68106
63227
98736
-153844
-66551
67519
-66548
66781
-72207
</DataArray>
<DataArray NumberOfComponents='3' type='Float32' Name='vels' format='ascii'>
0.329317 0.001942 0.000555
2.941750 0.743093 0.251364
0.429444 -0.071494 -0.000965
0.015178 -0.007408 -0.002045
4.011166 -0.808442 0.007605
0.224596 0.095890 -0.001211
5.291425 0.658114 0.015048
1.176154 -0.254865 0.050298
0.507524 0.003774 0.003613
1.487528 -0.023800 -0.108695
4.043204 0.516567 -0.062035
0.004033 -0.000498 0.000098
0.501894 0.320786 0.001944
0.706659 0.107191 -0.002111
0.498591 -0.003732 0.000907
4.781214 -0.633258 0.223552
2.072237 0.492204 0.162694
1.841632 -0.359408 0.096556
0.841466 0.058745 0.001974
4.618366 0.202199 0.374453
4.057130 0.583726 0.325260
1.145677 0.304244 0.002734
3.564954 -0.948543 -0.100939
0.007520 -0.000689 0.000885
5.081494 -0.728568 0.061442
2.709453 -0.571234 0.037044
2.890267 0.733475 0.271122
2.291721 0.555347 0.251364
0.822583 0.319901 -0.000791
0.600488 -0.175699 0.015577
0.094109 -0.000000 -0.000029
0.864476 0.670323 0.001669
3.213363 -0.761119 -0.003224
1.656845 -0.012767 0.231690
30.832558 8.406263 0.242404
1.694059 0.173883 0.293947
3.361597 0.485264 0.057820
5.072144 0.616756 0.203979
0.006188 -0.000001 -0.001542
4.822554 0.159554 -0.071552
0.163137 0.014290 0.007623
0.615663 0.085758 0.000479
0.624326 0.033200 -0.000239
3.522981 0.454183 -0.022000
1.981235 -0.030602 0.001087
0.029916 0.002266 0.000005
2.006508 0.142580 0.000006
1.580142 0.029803 0.349836
5.038774 -0.652624 0.013047
0.359687 0.003015 0.000183
2.926561 -0.297746 0.581025
1.155041 -0.250378 0.045583
2.831417 0.656188 0.157502
0.551891 -0.469654 0.164513
-0.000982 0.000375 -0.000423
2.459462 0.587685 0.168515
0.273069 -0.052853 0.000498
0.997289 0.032083 -0.004062
4.325011 -0.485807 0.474073
0.937506 0.268405 0.000663
3.969074 0.510293 -0.043608
3.009809 -0.323029 0.523657
2.087373 -0.571330 0.004354
2.169836 0.361286 0.178099
1.625300 0.032475 -0.102624
0.000943 0.004767 -0.017675
1.837721 0.174336 0.000259
4.340364 -0.231916 0.365021
3.114425 0.129711 0.500337
4.121013 0.480241 0.104173
3.314428 0.340714 0.441299
0.129706 0.074692 -0.000209
46.675339 14.517866 -0.076229
4.966831 -0.741021 0.103249
0.523358 -0.006061 -0.001375
0.070439 0.000020 -0.000120
1.666596 0.213651 -0.091226
4.058145 -0.762731 -0.344492
1.889371 0.057292 0.002064
0.068940 0.000179 0.000214
0.106433 0.018253 0.009396
2.447300 0.404613 0.136695
4.955756 -0.666599 0.026369
5.270291 0.597518 0.093265
3.790543 -0.755850 0.004429
1.734973 0.215841 0.000129
3.198346 -0.576469 0.091015
2.891380 0.658313 0.072510
4.708169 0.714293 0.041555
5.286538 0.662013 0.016323
0.297130 0.023889 -0.000646
4.335292 -0.493674 0.469468
2.376679 0.415278 0.303110
3.978817 0.514039 -0.035953
2.925429 0.736889 0.253986
0.158002 0.024523 0.000221
16.443892 0.216408 0.432539
1.565890 -0.337596 0.089770
4.657912 -0.665986 -0.017331
0.402313 0.016930 0.069481
4.122142 0.520750 -0.092827
0.629349 0.167348 0.000003
4.068510 -0.838672 0.002245
-0.003203 -0.000006 0.001933
0.004840 0.000784 -0.000134
3.529941 -0.711878 0.030954
2.701473 0.675651 0.006233
5.068028 0.739679 0.098900
0.026138 0.004239 -0.000461
5.282705 0.607003 0.090999
4.672356 0.220515 0.340548
0.001569 -0.000172 0.001494
0.109046 -0.023470 -0.000284
2.719856 0.689432 0.014472
1.875758 -0.371275 0.170103
3.526443 -0.813141 -0.314200
-0.001210 -0.000555 -0.001586
2.977139 -0.317598 0.549789
0.007261 0.000265 0.002155
2.856396 0.655576 -0.021302
-0.011234 0.004970 0.000147
1.562766 0.369950 0.099079
5.097804 -0.739710 -0.004191
5.187976 0.534039 0.131804
2.184550 -0.057329 -0.002896
0.012292 0.008008 0.000011
0.063052 -0.112684 0.126129
0.384938 -0.001348 0.000332
3.941319 -0.939718 0.019078
3.094111 0.466580 0.051646
0.778745 0.143009 0.001315
0.016057 0.000016 -0.000854
2.947628 -0.317004 0.559127
3.315421 0.229466 0.303735
3.114699 0.812712 -0.006021
3.981705 0.784788 -0.179278
2.397503 0.576482 0.045044
2.262234 -0.103763 0.199135
46.605008 17.425592 -0.121316
0.278164 0.001083 -0.001014
2.453705 0.036037 -0.002453
3.273935 -0.703619 -0.146819
1.963847 0.460067 0.023058
2.267504 0.537684 0.170558
3.031390 -0.650702 0.168210
0.798581 -0.043527 0.108054
1.769560 0.186691 0.019901
3.485382 -0.705401 0.047642
4.244217 0.718171 -0.088138
0.078912 -0.035162 -0.038296
3.309975 0.272851 0.268077
0.028963 -0.002091 0.012138
3.143853 0.750221 0.009430
3.065246 -0.673178 0.198509
4.241233 -0.744797 0.007929
2.531490 -0.450644 0.122602
3.991307 0.425104 0.155119
0.005668 -0.019523 0.114598
0.199968 0.099266 0.000080
0.305522 -0.076111 0.000537
0.013310 -0.000029 0.000899
3.337287 -0.471002 0.163648
4.864729 -0.743999 0.144699
4.023324 -0.834694 0.046985
0.000686 0.000026 0.000303
2.333838 0.209392 0.090805
2.983754 -0.330680 0.536378
0.003201 -0.001468 0.006987
0.004149 0.000007 -0.000910
0.026757 0.007830 0.000210
0.918581 0.405352 -0.000528
2.912069 0.446903 0.058844
4.195891 -0.823559 0.007726
1.286236 -0.020769 -0.013422
3.421469 0.801853 0.232091
1.914013 0.373947 0.333840
-0.001029 -0.000184 0.000121
3.917611 0.961390 0.066384
1.535828 0.082314 0.421986
3.998002 -0.839101 0.052347
2.110943 0.365026 -0.216448
4.558290 -0.718325 -0.153658
2.517882 0.602668 0.087560
2.602964 -0.618944 0.038887
0.003640 -0.001464 0.000340
3.746715 -0.624846 0.010220
4.537418 -0.639668 -0.001990
2.525898 -0.494562 0.096555
2.501094 0.137182 -0.000309
0.397865 -0.017576 0.004565
4.022468 -0.876011 0.007542
3.114020 0.835475 0.004567
4.032579 0.575637 0.282121
1.501351 -0.039478 -0.000088