<VTKFile type='UnstructuredGrid' version='1.0' byte_order='LittleEndian' header_type='UInt64'>
<UnstructuredGrid>
<Piece NumberOfCells='500' NumberOfPoints='500'>
<Points>
<DataArray NumberOfComponents='3' type='Float32' Name='Position' format='ascii'>
623.663615 181.653964 -4.625649
1029.059357 188.209033 -16.808274
-110.586780 381.769460 -6.346061
772.575045 245.907580 -6.371943
1029.278797 232.304881 -20.074967
-103.127145 109.334703 -2.364306
1029.253611 152.748402 -21.930599
1028.999307 227.831264 -4.645276
609.073516 185.108119 -3.975688
252.619824 232.627669 -5.214151
1029.136333 154.676584 -29.201451
89.608574 177.566805 -26.513853
189.715382 191.306039 -6.319786
672.997172 127.372202 -4.405194
621.875497 216.938366 -4.383128
1029.359902 252.147987 -15.006536
1029.119520 187.784713 -4.743284
1029.087137 262.783777 -11.868301
244.742257 224.430711 -7.478052
1029.193912 138.980634 -19.474711
1029.180406 166.324271 -12.000646
663.645463 46.627532 -4.615380
1029.076102 228.539705 -26.569211
460.842234 396.348705 -3.676574
1029.103216 249.678682 -17.080837
1028.990499 208.533237 -16.447437
1029.196326 188.604010 -17.100767
1029.136178 186.426719 -8.694585
237.001559 239.120085 -37.573069
1029.023483 265.307023 -7.267714
669.280271 215.304092 -12.108679
440.532418 55.607248 -2.002757
1029.231420 262.000992 -8.732897
1029.083701 205.611464 -10.271489
422.306524 386.274159 -3.543799
1028.995048 200.728172 -8.454059
1029.074164 155.183680 -27.112406
1029.321351 153.281068 -16.377951
570.822820 175.645768 -31.473045
1028.982668 142.206514 -26.628187
1028.977491 138.452308 -6.168599
690.830814 130.348442 -2.697848
480.203343 41.462956 -36.247419
1029.147816 142.387907 -29.713177
846.419374 212.695429 -17.711160
-194.578500 220.012430 -37.583834
296.443504 125.939592 -35.243201
1001.556014 207.723672 -9.274901
1029.339088 256.934836 -22.392138
738.242224 189.761452 -6.814930
1029.096555 251.048780 -9.627166
975.316496 237.915043 -5.622279
1029.044092 190.888146 -17.070591
328.222996 310.352430 -37.336275
-491.994463 186.827642 -2.153194
1029.140656 185.673421 -7.749712
587.140130 339.919590 -4.573613
-139.958914 181.166675 -30.928886
1029.281029 251.617953 -16.541149
725.464383 36.561500 -11.705160
655.081119 74.083503 -29.183064
1029.144067 251.298274 -9.433218
890.883643 313.925710 -8.093495
1029.092811 199.203232 -10.424503
1029.099325 207.296483 -29.207397
329.753530 261.906730 -37.598304
653.755188 159.024402 -36.522235
1029.003818 260.121252 -19.353480
1029.219105 141.565174 -7.227381
1029.030335 140.847806 -10.327024
1029.210581 151.177371 -10.058554
-115.130488 180.743964 -34.703030
422.743582 386.163063 -3.664093
1029.370072 249.889205 -17.917543
618.141449 223.060918 -3.713092
588.810233 214.076441 -31.029557
997.591544 211.821372 -29.267162
1029.088630 226.583231 -26.791639
688.698249 192.141235 -7.882036
681.868509 182.341293 -13.182651
851.733530 104.739569 -6.277230
1029.075219 199.084609 -13.594524
1029.306689 250.607125 -21.757990
1029.275264 140.263570 -17.033113
1029.110714 228.986199 -22.802082
696.168804 131.618102 -4.081394
1029.118126 264.933374 -10.231840
1029.150350 191.275146 -16.086105
1029.304192 140.303527 -20.675616
1029.296586 152.742705 -21.728450
496.568705 206.337003 -33.418399
1029.317875 251.504023 -16.457303
1029.142010 196.584875 -14.344229
1029.292726 155.217574 -29.018318
1029.213633 188.409014 -16.858498
519.779459 205.642968 -1.812469
360.932151 72.037530 -0.386499
1029.083866 230.763947 -4.547148
1029.337316 249.376128 -23.538960
1029.006290 140.497051 -6.606818
1029.101994 154.322595 -29.456101
224.652560 295.988982 -12.480109
1029.023898 231.951962 -20.916878
-432.264317 176.851518 -26.667032
-358.332568 250.390044 -20.005511
1029.244989 230.300666 -9.687840
1029.187334 191.618517 -20.456878
1029.318341 165.992030 -17.959244
-264.441846 264.945774 -19.937332
1028.977543 140.299234 -17.001177
1029.189046 140.141349 -19.420439
-501.461533 192.521120 -9.326138
349.630624 350.059844 -3.386574
1029.088515 191.145182 -20.070877
1029.119364 214.611647 -7.296110
1029.162892 231.219450 -28.952026
439.563303 74.149077 -20.894028
1029.069190 250.884586 -9.429735
-128.248822 384.413631 -5.728877
1029.161448 191.361488 -22.229912
236.363001 154.986747 -35.875311
1029.017562 182.407524 -4.431521
1029.203531 259.133438 -14.979347
1029.386622 140.349597 -17.517165
823.098087 212.685268 -8.839563
122.308805 222.315171 -33.702005
377.639320 41.467018 -2.348081
712.109273 212.641079 -7.082510
1029.257480 229.715106 -21.899225
1029.221177 141.549552 -28.168380
516.202610 52.011991 -5.060759
-160.502043 214.703344 -5.585409
1029.184340 250.622315 -9.354484
1029.115912 138.104862 -11.754595
1029.020587 188.147850 -23.823336
1029.259073 166.069571 -28.080659
1029.121508 190.466885 -8.136797
1029.124786 206.293152 -17.948811
422.237684 386.356569 -3.913509
-160.358367 213.585066 -4.068019
1028.976683 198.275371 -20.143932
1029.216848 231.067388 -27.441933
768.731187 165.481015 -36.414995
1029.134359 189.002731 -8.993922
1028.982673 228.031097 -11.093356
981.644963 272.641566 -6.715594
831.962283 67.764358 -20.365183
1029.064718 230.128527 -9.890916
1029.261154 171.158954 -29.184869
381.472231 52.266270 -10.001146
1029.152980 136.636137 -10.985803
1028.980528 254.689233 -4.344013
1029.072949 189.720784 -13.672791
1029.126679 229.823613 -11.368067
1029.116635 266.379400 -22.171789
731.018977 342.538769 -11.753026
1029.194718 140.926378 -10.790143
-19.599438 210.958926 -31.265530
500.392370 136.629923 -2.568724
522.245245 188.153641 -5.576487
885.994761 218.622605 -12.455107
640.706941 368.338031 -12.017824
1029.165082 249.277036 -18.436584
1029.236544 229.448986 -17.039859
588.351194 108.947780 -1.832108
1029.046234 203.253687 -14.894425
1029.162656 250.509853 -9.214404
336.611158 93.447828 -26.579455
536.788030 4.078114 -13.325533
666.160706 24.026249 -12.506511
117.658652 276.482522 -18.602370
1028.993105 141.600352 -27.791848
1029.312762 229.305865 -15.668280
792.511912 222.210546 -4.222242
1029.207264 189.143456 -11.935037
1029.079315 195.523317 -11.910939
-521.937687 274.713605 -37.102281
1029.232534 189.628657 -19.390733
952.866273 188.889618 -9.403454
1029.259166 229.986926 -17.220021
1029.103068 198.247599 -27.320136
1028.989402 252.799752 -25.582654
1029.160703 187.417509 -7.500706
1029.086343 261.955222 -10.171866
90.184458 179.604342 -26.173411
1029.196213 265.861447 -23.563606
1029.060599 250.741090 -23.158830
1028.978047 263.287548 -11.028804
306.219115 149.187062 -20.205595
-132.113968 316.375591 -3.544101
1029.184939 230.710144 -21.207296
1029.139103 188.001014 -24.091368
1029.296602 165.116357 -11.684768
771.182512 212.663064 -28.661125
352.061890 321.623946 -2.667238
1029.246652 152.097065 -21.274371
1029.238727 166.185289 -18.220476
683.408188 24.679494 -12.442035
1029.317852 166.310171 -11.196974
1029.074538 141.753036 -28.112455
1028.978325 226.681346 -19.098767
1029.070636 229.001683 -26.946571
357.182607 315.577304 -34.833555
1029.076318 154.088305 -26.648681
986.462776 112.679202 -8.001200
1029.134247 165.425647 -17.916420
651.998315 63.998765 -4.066912
1028.993193 251.027087 -9.360745
1029.191202 138.906774 -12.100933
-95.487407 179.498845 -2.765876
790.843373 212.671420 -15.948524
1028.987540 207.207378 -15.083185
1029.256612 249.121303 -18.632310
1029.083419 261.565138 -18.628778
1029.186294 141.644426 -26.875536
1029.125480 163.915666 -20.865933
1029.067550 187.903334 -11.437351
780.158774 212.668376 -28.398868
1028.977323 191.701105 -10.560304
55.366793 153.792376 -34.606022
1029.130325 227.908705 -11.363294
1029.161652 187.907923 -23.740786
340.054677 32.977648 -33.593789
1028.994581 191.539402 -20.807746
1029.089074 228.582486 -11.134421
1029.032689 139.337093 -11.491075
851.264853 181.578139 -26.564205
372.620258 58.008078 -18.904551
879.945033 81.148488 -20.541453
1029.118109 188.779216 -7.828990
1029.058995 154.448558 -27.720059
431.909000 254.555876 0.000849
511.673856 212.373816 -35.611855
1029.130825 162.909080 -15.085360
1029.287445 139.578995 -9.591735
525.061041 386.745653 -5.709376
1029.138655 191.579951 -20.417899
715.373944 220.149874 -25.942589
695.380780 180.798388 -19.946539
1029.215009 263.230013 -9.648705
1015.704547 140.651505 -28.378554
1029.034368 200.459019 -7.800582
1029.114565 185.116480 -26.917102
1029.027159 188.449629 -8.741109
1029.088616 227.990706 -18.525192
1028.995233 188.013687 -23.848952
756.335795 192.064870 -30.085345
1028.976192 263.358560 -7.415076
1028.983311 138.661981 -6.366192
313.978458 75.662006 -34.180661
1029.056723 204.324582 -9.094241
1028.993735 205.652109 -16.980837
1029.000713 266.680231 -14.841078
1029.019230 264.554280 -17.341043
1029.020443 260.195748 -17.082613
639.889014 167.065170 -6.009474
1029.136234 190.187559 -24.030354
36.308814 329.060233 -30.719266
71.367406 256.978689 -36.887940
652.608006 184.595562 -5.728686
316.718769 181.286167 -17.720293
635.238519 223.795029 -3.893434
1028.992364 140.724015 -18.226469
1029.094447 201.959905 -15.364515
1029.288175 250.532170 -11.240318
1028.982169 140.578835 -8.523235
358.789105 63.227082 -35.301997
-499.151322 188.919921 -25.206431
1028.991480 184.793799 -26.995024
-24.813360 280.119613 -4.312842
1029.263509 251.378450 -21.648380
-405.891022 125.931767 -36.011629
1029.055936 181.494904 -18.997324
311.341792 150.435466 -10.515406
1029.168282 189.604127 -16.148881
362.178369 71.951745 -20.353313
1029.060040 188.469406 -26.483053
1029.156936 166.796368 -19.504463
1029.062033 251.332961 -17.754174
915.699510 219.033699 -19.677598
1029.058731 251.612451 -21.507725
1029.209896 251.530546 -18.765869
1029.226357 141.141672 -26.962504
1029.035831 258.818714 -21.723534
1029.137454 191.840832 -7.148699
327.121045 41.156957 -33.752012
1028.992617 143.275617 -33.765066
335.931370 361.715935 -3.989495
1029.052570 231.238678 -23.593649
1028.981230 228.890302 -26.848342
928.425161 270.102585 -6.348074
1029.019086 186.784368 -8.920433
1029.062089 229.606706 -11.842059
-493.236205 185.949831 -4.168505
302.768336 45.870268 -34.082887
953.918635 187.875598 -29.869974
1029.055737 139.105929 -11.640209
630.009374 77.865552 -32.481190
1029.084872 192.212440 -20.238293
-195.203076 212.651161 -5.137368
510.205450 191.009033 -12.712497
1028.996143 151.715862 -17.273462
1028.994285 231.174448 -6.028807
411.591621 245.039275 -3.410562
594.431309 214.707633 -4.644539
1029.256785 153.702561 -22.613375
1029.274629 189.295571 -19.419725
1028.980026 266.824802 -15.162600
565.858341 40.795441 -28.056163
1029.096721 252.600993 -23.946544
1029.235200 153.879772 -27.568629
-227.472235 213.226054 -36.267366
1029.187861 266.035594 -23.100899
1029.273908 151.732683 -17.452964
1029.014351 139.407205 -11.818104
-74.332506 213.982998 -4.368150
1028.984348 184.826144 -32.941579
697.768637 132.834163 -3.448838
1028.980649 249.835231 -21.175183
888.317039 189.598331 -11.105509
1029.188393 230.634547 -28.444128
1029.080799 230.197874 -9.454699
708.822553 214.186093 -30.871893
895.457162 310.491098 -7.084109
930.545821 154.603805 -28.978242
1029.008500 206.564596 -15.792315
622.012946 151.528632 -2.313112
1029.067852 141.603446 -27.818469
1029.069269 165.176413 -18.524279
1029.133526 191.427176 -10.540003
481.183782 101.478059 -2.553801
266.451843 204.201591 -5.544831
669.096900 20.387743 -25.701285
1029.220334 140.786220 -22.054353
376.210735 252.721549 -34.824149
1029.175277 141.288491 -25.554240
486.541462 124.709383 -31.263990
1028.983994 232.598256 -35.049830
682.259258 128.328399 -4.675934
1029.228811 229.056026 -21.423484
1029.263211 229.727649 -8.828450
485.396130 203.867520 -29.467385
1029.255636 140.847097 -10.347196
1029.144526 262.952322 -22.063480
626.166956 49.448718 -32.974592
1029.093018 189.431262 -22.359625
310.447481 317.456199 -2.522389
1029.246426 229.393185 -16.587050
1029.139657 191.405911 -25.144298
1029.093379 191.825392 -10.545870
1029.146176 187.848913 -9.040993
1029.240783 141.515258 -27.379984
-200.706384 364.109385 -6.030614
1029.025452 191.423095 -15.451683
550.372347 363.374063 -5.624035
48.695565 225.155730 -26.066224
644.949483 12.329818 -10.310360
1029.083022 262.773429 -19.497108
1029.086616 250.371744 -7.973811
1029.037398 262.781573 -26.167907
1029.137774 227.226450 -10.712844
1029.144133 141.824809 -12.094427
1028.988883 264.995240 -7.280992
1029.072346 230.843770 -24.585391
476.086035 5.972255 -28.779247
679.594099 22.866530 -11.804433
1029.022948 190.328694 -22.596931
383.674985 264.333839 -20.021750
-110.039425 106.559581 -26.006292
736.065158 135.767660 -6.015006
1028.999467 189.009184 -23.377562
84.556094 218.416545 -5.592440
1029.220458 185.847851 -11.251454
1029.284457 252.216365 -23.460776
1029.129728 164.701498 -20.667179
1029.238084 189.379812 -19.425016
764.773180 320.355908 -12.535902
1028.998408 152.824558 -6.281295
1029.029557 189.622144 -9.059488
1029.097936 262.061277 -16.866182
1029.292222 139.341657 -20.537809
1029.028994 140.404660 -8.938870
863.601348 78.033126 -6.668633
1029.005844 140.255329 -9.204981
-500.408538 192.873923 -15.113499
422.364659 386.234165 -5.736371
1029.087163 227.049554 -11.271518
754.518733 188.222897 -19.240028
944.028278 294.990567 -18.022434
27.682900 18.603170 -11.575420
1029.284670 252.620977 -25.589771
-261.625489 212.939150 -37.636907
1029.146218 191.360374 -20.366622
1029.105913 190.489401 -8.928432
1028.984297 152.167014 -15.410153
524.196196 196.428760 -34.322100
1028.977495 139.629717 -6.673073
123.622110 259.199922 -34.739361
1029.217982 189.239624 -24.197824
-120.989672 176.778101 -5.722367
805.361828 212.678350 -9.199199
-196.923596 33.528420 -26.240889
1029.331110 152.525238 -20.330589
124.707061 231.598060 -36.225727
1029.187656 251.079710 -22.841616
1029.318670 140.222168 -7.695200
533.584364 168.796970 -6.070826
1029.189180 152.203793 -9.786901
1028.984107 199.209111 -10.400203
1029.020630 165.105675 -19.151886
1029.009679 191.458190 -6.372217
1029.190473 154.549839 -27.821762
1029.119299 138.490448 -7.169665
-85.663013 388.048320 -12.629393
1028.992859 189.529076 -21.214293
1029.200837 141.506837 -28.207214
1029.122687 189.627835 -12.980992
1029.110689 230.414989 -7.779148
312.653669 143.367641 -9.964197
1029.067094 190.358882 -21.601804
1029.149717 228.931587 -26.989552
498.884344 41.994510 -35.181388
654.251618 348.883647 -6.504366
1029.126705 199.221430 -20.196635
1028.978204 191.616251 -5.973972
1029.154759 191.002642 -23.581673
1029.118563 166.532241 -28.691753
771.865757 224.351661 -4.377663
1029.114841 139.297521 -11.567960
411.558032 245.110662 -3.276845
1029.136270 191.163161 -23.318089
682.649876 24.497636 -10.674944
1029.105731 205.069380 -15.635904
1028.991614 151.329544 -19.248305
-500.499116 193.083347 -15.391223
372.583227 54.707716 -20.816006
1029.120078 187.702432 -9.310782
1029.163817 184.148452 -21.974278
1029.312471 248.234907 -9.873754
575.109382 138.348032 -33.491072
1029.328978 136.843542 -18.881703
1029.094399 248.978200 -25.149447
1029.222021 229.310936 -11.098716
1029.172426 140.413768 -21.018412
1029.112981 188.285432 -16.581198
1029.118423 167.132526 -29.081801
1029.032436 162.086172 -8.090933
1029.041121 142.217793 -6.243565
1029.236015 251.014534 -17.909152
477.643444 223.927770 -35.171423
568.218933 237.279637 -1.741700
1028.977966 139.590846 -10.513834
1029.013381 155.959542 -27.775785
695.695590 178.466514 -26.511319
377.352689 255.648402 -33.651524
1029.030631 206.195502 -29.210784
957.123311 177.427974 -6.879586
1029.122752 191.332256 -15.803695
1029.022018 152.098673 -9.721617
1028.979961 185.456998 -7.675500
233.899871 149.913415 -31.556224
1029.034602 250.235039 -24.035320
1028.995501 195.148381 -11.832256
372.583433 59.776160 -12.460715
-156.710824 219.352639 -6.223985
1029.121923 139.486113 -10.572183
1028.993989 138.911566 -6.091481
1029.016906 187.725508 -9.274138
898.375791 216.388534 -28.268723
1029.281845 164.317919 -10.568704
245.896290 251.595911 -37.745339
790.058126 304.936866 -5.935565
124.119721 229.122765 -36.101043
665.929216 19.249151 -8.816219
400.884835 273.474580 -5.355285
1029.080642 139.809185 -8.448109
625.852154 158.524502 -2.342267
1029.190996 251.339016 -24.093351
823.576133 212.679033 -8.359305
302.672528 206.830651 -19.556656
167.011033 213.931123 -37.137667
1029.091622 188.026010 -8.426024
526.313651 143.571853 -1.557864
1029.233175 246.857364 -23.058501
718.132877 357.913763 -26.122382
1029.182799 226.565878 -26.855878
1029.101006 187.965896 -24.494495
1029.001557 265.025473 -24.043119
1029.035127 184.774956 -22.472807
1029.077783 191.459570 -6.368736
1029.147602 265.728428 -24.808093
1028.979811 266.614511 -21.884949
770.175556 348.112918 -23.952604
89.889859 178.618361 -26.236902
378.075462 7.721897 -0.963226
1029.072314 141.391280 -11.738849
797.225037 99.590055 -5.266762
1029.042814 142.222528 -5.287601
850.341703 290.824040 -6.665425
1002.667261 207.253801 -17.787602
</DataArray>
</Points>
<PointData>
<DataArray NumberOfComponents='1' type='Int32' Name='ParticleType' format='ascii'>
1
1
1
1
1
1
1
1
1
1
1
1
1
1
1
1
1
1
1
1
1
1
1
1
1
1
1
1
1
1
1
1
1
1
1
1
1
1
1
1
1
1
1
1
1
1
1
1
1
1
1
1
1
1
1
1
1
1
1
1
1
1
1
1
1
1
1
1
1
1
1
1
1
1
1
1
1
1
1
1
1
1
1
1
1
1
1
1
1
1
1
1
1
1
1
1
1
1
1
1
1
1
1
1
1
1
1
1
1
1
1
1
1
1
1
1
1
1
1
1
1
1
1
1
1
1
1
1
1
1
1
1
1
1
1
1
1
1
1
1
1
1
1
1
1
1
1
1
1
1
1
1
1
1
1
1
1
1
1
1
1
1
1
1
1
1
1
1
1
1
1
1
1
1
1
1
1
1
1
1
1
1
1
1
1
1
1
1
1
1
1
1
1
1
1
1
1
1
1
1
1
1
1
1
1
1
1
1
1
1
1
1
1
1
1
1
1
1
1
1
1
1
1
1
1
1
1
1
1
1
1
1
1
1
1
1
1
1
1
1
1
1
1
1
1
1
1
1
1
1
1
1
1
1
1
1
1
1
1
1
1
1
1
1
1
1
1
1
1
1
1
1
1
1
1
1
1
1
1
1
1
1
1
1
1
1
1
1
1
1
1
1
1
1
1
1
1
1
1
1
1
1
1
1
1
1
1
1
1
1
1
1
1
1
1
1
1
1
1
1
1
1
1
1
1
1
1
1
1
1
1
1
1
1
1
1
1
1
1
1
1
1
1
1
1
1
1
1
1
1
1
1
1
1
1
1
1
1
1
1
1
1
1
1
1
1
1
1
1
1
1
1
1
1
1
1
1
1
1
1
1
1
1
1
1
1
1
1
1
1
1
1
1
1
1
1
1
1
1
1
1
1
1
1
1
1
1
1
1
1
1
1
1
1
1
1
1
1
1
1
1
1
1
1
1
1
1
1
1
1
1
1
1
1
1
1
1
1
1
1
1
1
1
1
1
1
1
1
1
1
1
1
1
1
1
1
1
1
1
1
1
1
1
1
1
1
1
1
1
1
1
1
1
1
1
1
1
1
1
1
1
1
1
1
1
1
1
1
1
1
1
1
1
1
1
1
1
1
1
1
</DataArray>
<DataArray NumberOfComponents='1' type='Int32' Name='ParticleID' format='ascii'>
0
1
2
3
4
5
6
7
8
9
10
11
12
13
14
15
16
17
18
19
20
21
22
23
24
25
26
27
28
29
30
31
32
33
34
35
36
37
38
39
40
41
42
43
44
45
46
47
48
49
50
51
52
53
54
55
56
57
58
59
60
61
62
63
64
65
66
67
68
69
70
71
72
73
74
75
76
77
78
79
80
81
82
83
84
85
86
87
88
89
90
91
92
93
94
95
96
97
98
99
100
101
102
103
104
105
106
107
108
109
110
111
112
113
114
115
116
117
118
119
120
121
122
123
124
125
126
127
128
129
130
131
132
133
134
135
136
137
138
139
140
141
142
143
144
145
146
147
148
149
150
151
152
153
154
155
156
157
158
159
160
161
162
163
164
165
166
167
168
169
170
171
172
173
174
175
176
177
178
179
180
181
182
183
184
185
186
187
188
189
190
191
192
193
194
195
196
197
198
199
200
201
202
203
204
205
206
207
208
209
210
211
212
213
214
215
216
217
218
219
220
221
222
223
224
225
226
227
228
229
230
231
232
233
234
235
236
237
238
239
240
241
242
243
244
245
246
247
248
249
250
251
252
253
254
255
256
257
258
259
260
261
262
263
264
265
266
267
268
269
270
271
272
273
274
275
276
277
278
279
280
281
282
283
284
285
286
287
288
289
290
291
292
293
294
295
296
297
298
299
300
301
302
303
304
305
306
307
308
309
310
311
312
313
314
315
316
317
318
319
320
321
322
323
324
325
326
327
328
329
330
331
332
333
334
335
336
337
338
339
340
341
342
343
344
345
346
347
348
349
350
351
352
353
354
355
356
357
358
359
360
361
362
363
364
365
366
367
368
369
370
371
372
373
374
375
376
377
378
379
380
381
382
383
384
385
386
387
388
389
390
391
392
393
394
395
396
397
398
399
400
401
402
403
404
405
406
407
408
409
410
411
412
413
414
415
416
417
418
419
420
421
422
423
424
425
426
427
428
429
430
431
432
433
434
435
436
437
438
439
440
441
442
443
444
445
446
447
448
449
450
451
452
453
454
455
456
457
458
459
460
461
462
463
464
465
466
467
468
469
470
471
472
473
474
475
476
477
478
479
480
481
482
483
484
485
486
487
488
489
490
491
492
493
494
495
496
497
498
499
</DataArray>
<DataArray NumberOfComponents='1' type='Int8' Name='IsActive' format='ascii'>
1
0
1
1
0
1
0
0
1
1
0
1
1
1
1
0
0
0
1
0
0
1
0
1
0
0
0
0
1
0
1
1
0
0
0
0
0
0
1
0
0
1
1
0
0
1
1
1
0
1
0
1
0
1
1
0
1
1
0
1
1
0
1
0
0
1
1
0
0
0
0
1
0
0
1
1
1
0
0
1
1
0
0
0
0
1
0
0
0
0
1
0
0
0
0
1
1
0
0
0
0
1
0
1
1
0
0
0
1
0
0
1
1
0
0
0
1
0
1
0
1
0
0
0
0
1
0
1
0
0
1
1
0
0
0
0
0
0
0
1
0
0
1
0
0
1
1
0
0
0
0
0
0
0
0
1
0
1
1
1
1
1
0
0
1
0
0
1
1
1
1
0
0
1
0
0
1
0
1
0
0
0
0
0
1
0
0
0
1
1
0
0
0
0
1
0
0
1
0
0
0
0
1
0
1
0
1
0
0
1
0
0
0
0
0
0
0
0
0
1
0
0
1
0
0
0
1
0
1
0
0
0
1
0
0
1
0
1
1
0
1
0
0
0
0
0
1
0
0
1
0
0
0
0
0
1
0
1
1
1
1
1
0
0
0
0
1
1
0
1
0
1
0
1
0
1
0
0
0
1
0
0
0
0
0
1
0
1
0
0
1
0
0
1
1
1
0
1
0
1
1
0
0
0
1
0
0
0
1
0
0
1
0
0
0
1
0
1
0
1
0
0
1
1
1
0
1
0
0
0
1
1
1
0
1
0
1
0
1
0
0
1
0
0
1
0
1
0
0
0
0
0
1
0
1
1
1
0
0
0
0
0
0
0
1
1
0
1
1
1
0
1
0
0
0
0
1
0
0
0
0
0
1
0
1
0
0
1
1
1
0
1
0
0
0
1
0
1
0
1
0
1
0
1
0
0
1
0
0
0
0
0
0
1
0
0
0
0
1
0
0
1
1
0
0
0
0
1
0
0
0
1
0
0
1
0
0
0
0
1
0
0
0
0
0
0
0
0
0
1
1
0
0
1
1
0
1
0
0
0
1
0
0
0
1
0
0
0
1
0
1
1
1
1
0
0
1
0
0
1
1
0
1
0
1
0
0
0
0
0
0
0
1
1
0
0
1
0
1
1
</DataArray>
<DataArray NumberOfComponents='1' type='Int32' Name='ParticleTetID' format='ascii'>
61220
-61515
2378
69319
-58962
23220
-66558
-58952
59906
25992
-66561
98736
27920
66728
61202
-64917
-61508
-68099
25995
-66554
-59783
74304
-58961
81758
-64916
-70586
-61515
-61512
27142
-68100
65164
87720
-68099
-72204
-112396
-72204
-66561
-66555
65784
-66557
-66585
66708
52721
-66560
-69092
9521
95420
58397
-64920
63093
-64914
70634
-61515
37078
19262
-61512
60986
6962
-64917
66119
64614
-64914
64049
-72203
-72213
37113
57779
-64917
-66552
-66551
-66552
12095
-112396
-64916
68042
70573
74732
-58965
-63131
63130
57079
-72207
-64920
-66554
-58961
66710
-68099
-61515
-66557
-66558
52287
-64917
-72207
-66561
-61515
64890
85864
-58952
-64919
-66548
-66561
40738
-58962
3810
5067
-58955
-61518
-59786
6343
-66554
-66554
2273
42392
-61518
-70584
-58965
87804
-64914
10082
-61518
44746
-61508
-64917
-66554
-62952
40066
-146594
63023
-58962
-66560
69500
7507
-64914
-66588
-61518
-59791
-61512
-72207
-112396
7508
-72210
-58965
74481
-61512
-58955
75657
68121
-58955
-59791
-156163
-66588
-64911
-61515
-58955
-68105
70780
-66551
19777
65737
66457
71734
59134
-64916
-58958
57926
-72207
-64914
45046
61402
63509
48084
-66560
-58958
63038
-61511
-72203
10690
-61514
67343
-58958
-72213
-64919
-61512
-68099
98736
-68105
-64919
-68099
26469
4664
-58962
-61518
-59783
-63014
33248
-66558
-59786
75406
-59783
-66560
-58958
-58965
37239
-66557
63687
-59786
63740
-64914
-66551
15662
-63044
-72207
-64916
-68102
-66561
-59788
-61511
-63015
-61512
37997
-58955
-61518
29949
-61518
-58955
-66551
68842
-84717
61929
-61512
-66561
-136563
66419
-59785
-66551
73531
-61518
63028
63116
-68099
71346
-72204
-61521
-61512
-58958
-61518
63212
-68100
-66585
26153
-72204
-72207
-68103
-68102
-64917
58231
-61518
42782
30058
69517
43694
68976
-66554
-72207
-64913
-66551
47644
19217
-61521
18794
-64920
2213
-61514
43709
-61515
85776
-61517
-59786
-64916
72512
-64920
-64916
-66561
-64920
-61512
31841
-66564
43562
-58961
-58965
61075
-61512
-58955
19262
29373
67352
-66551
60655
-61518
7490
66928
-66555
-58952
-126563
62750
-66558
-61514
-68103
59286
-64919
-66561
9430
-68105
-66555
-66551
18091
-61520
66710
-64920
71213
-58965
-58955
65245
60177
72174
-72207
60804
-66560
-59786
-61512
53874
32438
63515
-66557
82505
-66557
54842
-58968
66728
-58962
-58955
53185
-66551
-68105
58117
-61518
32330
-58958
-61518
-61512
-61512
-66561
7813
-61515
77527
30268
63653
-68102
-64914
-68105
-58955
-66551
-68100
-58961
52410
75406
-61518
82198
14339
64117
-61518
31501
-61511
-64920
-59788
-61514
72940
-66548
-61512
-68102
-66557
-66551
63615
-66551
2276
-112399
-58955
63205
63944
27455
-64919
7558
-61518
-61512
-66555
62871
-66552
91815
-61518
5384
-62951
9676
-66558
92064
-64920
-66551
58628
-66552
-72203
-59786
-61508
-66561
-66588
3496
-61518
-66560
-61511
-58956
45131
-61518
-58965
52522
76141
-72210
-61509
-61518
-59791
65198
-66551
-126559
-61518
75407
-72207
-66554
2276
-85665
-61512
-61518
-64913
69479
-66591
-64919
-58955
-66557
-61515
-59791
-59782
-66548
-64916
52901
71532
-66551
-66561
65314
82391
-72213
59241
-61515
-66552
-61512
95329
-64919
-72203
-84632
7508
-66551
-66548
-61512
62814
-59783
24821
64279
91184
63507
-127033
-66551
58590
-64919
-62952
27476
91823
-61512
74052
-64919
63425
-58965
-61518
-68105
-61518
-61508
-68105
-68106
65584
98736
-153844
-66551
60464
-66548
61795
58400
</DataArray>
<DataArray NumberOfComponents='3' type='Float32' Name='vels' format='ascii'>
0.093283 -0.002081 0.000902
2.941750 0.743093 0.251364
0.022078 0.001465 -0.000902
1.461496 -0.173381 0.000986
4.011166 -0.808442 0.007605
0.222170 -0.000840 0.000111
5.291425 0.658114 0.015048
1.176154 -0.254865 0.050298
0.337546 -0.008300 -0.004044
1.582969 1.291074 0.000001
4.043204 0.516567 -0.062035
-0.001269 0.002313 0.003761
6.142018 0.096084 0.024971
0.847674 0.109802 0.001321
0.029551 0.000085 0.000097
4.781214 -0.633258 0.223552
2.072237 0.492204 0.162694
1.841632 -0.359408 0.096556
2.713360 1.878366 -0.003802
4.618366 0.202199 0.374453
4.057130 0.583726 0.325260
1.193653 0.270329 0.000265
3.564954 -0.948543 -0.100939
0.004316 0.000049 0.000885
5.081494 -0.728568 0.061442
2.709453 -0.571234 0.037044
2.890267 0.733475 0.271122
2.291721 0.555347 0.251364
0.684060 0.875564 -0.001221
0.600488 -0.175699 0.015577
0.796912 -0.003984 0.000678
0.003440 -0.003305 -0.005643
3.213363 -0.761119 -0.003224
1.656845 -0.012767 0.231690
30.832558 8.406263 0.242404
1.694059 0.173883 0.293947
3.361597 0.485264 0.057820
5.072144 0.616756 0.203979
1.078746 -0.135310 -0.002370
4.822554 0.159554 -0.071552
0.163137 0.014290 0.007623
0.575370 0.077888 0.000441
0.586859 0.143904 0.000719
3.522981 0.454183 -0.022000
1.981235 -0.030602 0.001087
0.246964 0.004481 0.000191
0.014610 -0.018241 0.000004
-0.001707 0.008817 0.001547
5.038774 -0.652624 0.013047
0.364149 0.002858 -0.000038
2.926561 -0.297746 0.581025
0.669761 -0.046866 0.001013
2.831417 0.656188 0.157502
0.373195 0.038789 -0.000652
0.001827 -0.000305 -0.000290
2.459462 0.587685 0.168515
0.870010 0.142379 0.000342
0.187564 0.000087 0.000487
4.325011 -0.485807 0.474073
0.479809 0.139276 -0.001139
1.930310 0.335557 -0.002680
3.009809 -0.323029 0.523657
1.715730 -0.451908 0.038068
2.169836 0.361286 0.178099
1.625300 0.032475 -0.102624
1.657705 0.262666 0.010740
0.752651 0.040937 -0.000160
4.340364 -0.231916 0.365021
3.114425 0.129711 0.500337
4.121013 0.480241 0.104173
3.314428 0.340714 0.441299
0.560122 0.005461 -0.000371
46.675339 14.517866 -0.076229
4.966831 -0.741021 0.103249
0.158691 -0.000435 -0.000801
0.309354 0.008283 0.003655
0.024149 -0.021484 0.008888
4.058145 -0.762731 -0.344492
1.889371 0.057292 0.002064
0.080074 0.000075 0.000276
0.949807 0.189134 -0.010775
2.447300 0.404613 0.136695
4.955756 -0.666599 0.026369
5.270291 0.597518 0.093265
3.790543 -0.755850 0.004429
0.722194 0.098794 0.001046
3.198346 -0.576469 0.091015
2.891380 0.658313 0.072510
4.708169 0.714293 0.041555
5.286538 0.662013 0.016323
0.100979 -0.117110 0.000775
4.335292 -0.493674 0.469468
2.376679 0.415278 0.303110
3.978817 0.514039 -0.035953
2.925429 0.736889 0.253986
0.202023 -0.028809 -0.000087
0.009343 0.007913 -0.004940
1.565890 -0.337596 0.089770
4.657912 -0.665986 -0.017331
0.402313 0.016930 0.069481
4.122142 0.520750 -0.092827
0.608822 1.217922 -0.006444
4.068510 -0.838672 0.002245
-0.003243 -0.000005 -0.001156
0.016901 0.002747 -0.000242
3.529941 -0.711878 0.030954
2.701473 0.675651 0.006233
5.068028 0.739679 0.098900
0.045962 0.007447 -0.000100
5.282705 0.607003 0.090999
4.672356 0.220515 0.340548
0.002081 -0.001329 0.001311
0.336348 0.231097 0.001022
2.719856 0.689432 0.014472
1.875758 -0.371275 0.170103
3.526443 -0.813141 -0.314200
-0.002934 -0.001383 0.001167
2.977139 -0.317598 0.549789
0.028916 0.008318 -0.001295
2.856396 0.655576 -0.021302
0.039039 0.009123 -0.000066
1.562766 0.369950 0.099079
5.097804 -0.739710 -0.004191
5.187976 0.534039 0.131804
2.184550 -0.057329 -0.002896
-0.005615 -0.004735 -0.000075
0.063052 -0.112684 0.126129
0.381027 -0.001316 0.000329
3.941319 -0.939718 0.019078
3.094111 0.466580 0.051646
0.345565 0.102724 0.000402
0.256965 0.000803 -0.002222
2.947628 -0.317004 0.559127
3.315421 0.229466 0.303735
3.114699 0.812712 -0.006021
3.981705 0.784788 -0.179278
2.397503 0.576482 0.045044
2.262234 -0.103763 0.199135
46.605008 17.425592 -0.121316
0.018724 -0.000046 -0.000345
2.453705 0.036037 -0.002453
3.273935 -0.703619 -0.146819
1.796510 0.105258 -0.000237
2.267504 0.537684 0.170558
3.031390 -0.650702 0.168210
2.357957 -0.563563 -0.000348
1.656700 0.470515 -0.000619
3.485382 -0.705401 0.047642
4.244217 0.718171 -0.088138
0.078912 -0.035162 -0.038296
3.309975 0.272851 0.268077
0.028963 -0.002091 0.012138
3.143853 0.750221 0.009430
3.065246 -0.673178 0.198509
4.241233 -0.744797 0.007929
2.201904 -0.559780 0.000555
3.991307 0.425104 0.155119
1.589916 0.417189 -0.000540
0.300296 0.479607 -0.001728
0.430122 -0.025610 0.000931
0.623713 0.000287 -0.003121
1.573870 -0.339600 0.001736
4.864729 -0.743999 0.144699
4.023324 -0.834694 0.046985
0.016010 0.000100 0.000108
2.333838 0.209392 0.090805
2.983754 -0.330680 0.536378
0.034259 -0.034703 0.002071
0.008149 0.000032 -0.000473
0.012832 0.003744 0.000139
0.895698 -1.282684 0.034461
2.912069 0.446903 0.058844
4.195891 -0.823559 0.007726
0.021698 -0.000012 0.002599
3.421469 0.801853 0.232091
1.914013 0.373947 0.333840
0.001687 0.000695 0.000131
3.917611 0.961390 0.066384
0.306740 0.000370 0.000471
3.998002 -0.839101 0.052347
2.110943 0.365026 -0.216448
4.558290 -0.718325 -0.153658
2.517882 0.602668 0.087560
2.602964 -0.618944 0.038887
-0.002666 0.002144 -0.000239
3.746715 -0.624846 0.010220
4.537418 -0.639668 -0.001990
2.525898 -0.494562 0.096555
1.226871 -8.631324 -0.012135
0.071365 0.010854 0.000589
4.022468 -0.876011 0.007542
3.114020 0.835475 0.004567
4.032579 0.575637 0.282121
1.501351 -0.039478 -0.000088
0.442486 0.036029 -0.001350
5.273003 0.663612 0.018242