<VTKFile type='UnstructuredGrid' version='1.0' byte_order='LittleEndian' header_type='UInt64'>
<UnstructuredGrid>
<Piece NumberOfCells='500' NumberOfPoints='500'>
<Points>
<DataArray NumberOfComponents='3' type='Float32' Name='Position' format='ascii'>
679.752853 182.272182 -4.659539
1029.059357 188.209033 -16.808274
-37.723252 373.559237 -6.403510
1028.977209 230.333959 -4.691858
1029.278797 232.304881 -20.074967
-54.149512 115.548591 -2.625107
1029.253611 152.748402 -21.930599
1028.999307 227.831264 -4.645276
660.597196 185.384083 -3.959260
506.443691 254.634585 -3.883282
1029.136333 154.676584 -29.201451
89.643238 177.740268 -26.316081
351.282110 243.270736 -5.943531
760.885472 139.661782 -4.204518
659.755702 216.707301 -4.350509
1029.359902 252.147987 -15.006536
1029.119520 187.784713 -4.743284
1029.087137 262.783777 -11.868301
555.257442 251.164414 -6.232976
1029.193912 138.980634 -19.474711
1029.180406 166.324271 -12.000646
944.948523 119.798485 -4.504886
1029.076102 228.539705 -26.569211
460.844713 396.323313 -3.630816
1029.103216 249.678682 -17.080837
1028.990499 208.533237 -16.447437
1029.196326 188.604010 -17.100767
1029.136178 186.426719 -8.694585
323.042895 308.514242 -37.651436
1029.023483 265.307023 -7.267714
738.796986 214.924645 -12.089800
568.693819 131.511393 -5.518238
1029.231420 262.000992 -8.732897
1029.083701 205.611464 -10.271489
422.306524 386.274159 -3.543799
1028.995048 200.728172 -8.454059
1029.074164 155.183680 -27.112406
1029.321351 153.281068 -16.377951
816.849066 180.365033 -31.594280
1028.982668 142.206514 -26.628187
1028.977491 138.452308 -6.168599
805.996846 146.009001 -2.652026
632.712195 61.566414 -36.267295
1029.147816 142.387907 -29.713177
846.419374 212.695429 -17.711160
-181.597744 220.641283 -37.690403
609.705432 43.618304 -29.526918
1029.016275 203.193862 -10.300218
1029.339088 256.934836 -22.392138
816.022377 190.471878 -6.822775
1029.096555 251.048780 -9.627166
1028.976346 227.605951 -4.622459
1029.044092 190.888146 -17.070591
384.033324 280.631029 -34.189299
-492.059598 186.860644 -2.241399
1029.140656 185.673421 -7.749712
753.910280 315.045150 -4.568768
-73.067698 184.676628 -31.328880
1029.281029 251.617953 -16.541149
828.957052 66.088294 -11.719663
1029.020888 154.537749 -28.918852
1029.144067 251.298274 -9.433218
1029.034549 273.754103 -8.068011
1029.092811 199.203232 -10.424503
1029.099325 207.296483 -29.207397
386.842968 263.748023 -27.526682
868.723825 173.383207 -36.555963
1029.003818 260.121252 -19.353480
1029.219105 141.565174 -7.227381
1029.030335 140.847806 -10.327024
1029.210581 151.177371 -10.058554
-44.913503 205.097116 -34.376258
422.743582 386.163063 -3.664093
1029.370072 249.889205 -17.917543
693.811204 221.994356 -3.631803
637.249446 214.280962 -30.930818
1028.990420 203.263316 -27.345185
1029.088630 226.583231 -26.791639
688.698249 192.141235 -7.882036
702.845591 182.402038 -13.194994
1028.977143 150.658634 -3.922269
1029.075219 199.084609 -13.594524
1029.306689 250.607125 -21.757990
1029.275264 140.263570 -17.033113
1029.110714 228.986199 -22.802082
809.945985 147.033397 -3.950931
1029.118126 264.933374 -10.231840
1029.150350 191.275146 -16.086105
1029.304192 140.303527 -20.675616
1029.296586 152.742705 -21.728450
545.616509 198.443508 -33.441179
1029.317875 251.504023 -16.457303
1029.142010 196.584875 -14.344229
1029.292726 155.217574 -29.018318
1029.213633 188.409014 -16.858498
547.865373 206.302864 -1.781022
397.863643 67.514712 0.024426
1029.083866 230.763947 -4.547148
1029.337316 249.376128 -23.538960
1029.006290 140.497051 -6.606818
1029.101994 154.322595 -29.456101
307.463699 379.015296 -12.621372
1029.023898 231.951962 -20.916878
-432.517652 176.862918 -26.669727
-238.400190 268.008518 -19.998174
1029.244989 230.300666 -9.687840
1029.187334 191.618517 -20.456878
1029.318341 165.992030 -17.959244
-257.048568 266.136234 -19.969130
1028.977543 140.299234 -17.001177
1029.189046 140.141349 -19.420439
-501.111404 192.692407 -9.082246
527.930724 354.176111 -4.963795
1029.088515 191.145182 -20.070877
1029.119364 214.611647 -7.296110
1029.162892 231.219450 -28.952026
439.294806 74.019468 -21.128099
1029.069190 250.884586 -9.429735
-109.970248 386.631222 -5.538194
1029.161448 191.361488 -22.229912
300.538136 85.276746 -35.969085
1029.017562 182.407524 -4.431521
1029.203531 259.133438 -14.979347
1029.386622 140.349597 -17.517165
823.098087 212.685268 -8.839563
122.313716 222.312123 -33.775052
377.639320 41.467018 -2.348081
712.139633 212.639553 -7.082736
1029.257480 229.715106 -21.899225
1029.221177 141.549552 -28.168380
700.828179 74.196732 -5.087622
-137.609356 214.841202 -5.702737
1029.184340 250.622315 -9.354484
1029.115912 138.104862 -11.754595
1029.020587 188.147850 -23.823336
1029.259073 166.069571 -28.080659
1029.121508 190.466885 -8.136797
1029.124786 206.293152 -17.948811
422.237684 386.356569 -3.913509
-122.088507 213.811607 -4.246847
1028.976683 198.275371 -20.143932
1029.216848 231.067388 -27.441933
1028.665922 181.308487 -36.278248
1029.134359 189.002731 -8.993922
1028.982673 228.031097 -11.093356
1029.039157 263.371907 -6.178223
1029.066686 123.795126 -20.973499
1029.064718 230.128527 -9.890916
1029.261154 171.158954 -29.184869
381.472231 52.266270 -10.001146
1029.152980 136.636137 -10.985803
1028.980528 254.689233 -4.344013
1029.072949 189.720784 -13.672791
1029.126679 229.823613 -11.368067
1029.116635 266.379400 -22.171789
1029.076227 263.962610 -11.302050
1029.194718 140.926378 -10.790143
469.666078 88.161074 -29.215656
529.043013 166.097861 -2.550248
583.786561 180.495019 -5.469267
999.268461 215.917291 -12.718373
1029.082559 267.461904 -10.887103
1029.165082 249.277036 -18.436584
1029.236544 229.448986 -17.039859
608.733523 109.357996 -1.879764
1029.046234 203.253687 -14.894425
1029.162656 250.509853 -9.214404
363.082323 73.945529 -20.725919
563.384762 4.229460 -13.338211
757.230831 49.924420 -12.520430
325.893975 367.296876 -16.653440
1028.993105 141.600352 -27.791848
1029.312762 229.305865 -15.668280
914.670424 220.315252 -3.986363
1029.207264 189.143456 -11.935037
1029.079315 195.523317 -11.910939
-521.910963 274.707379 -37.178971
1029.232534 189.628657 -19.390733
1029.052152 201.313464 -9.953693
1029.259166 229.986926 -17.220021
1029.103068 198.247599 -27.320136
1028.989402 252.799752 -25.582654
1029.160703 187.417509 -7.500706
1029.086343 261.955222 -10.171866
90.216201 179.705368 -26.161246
1029.196213 265.861447 -23.563606
1029.060599 250.741090 -23.158830
1028.978047 263.287548 -11.028804
750.704451 171.176742 -17.384483
-76.222989 315.982781 -3.410650
1029.184939 230.710144 -21.207296
1029.139103 188.001014 -24.091368
1029.296602 165.116357 -11.684768
771.182512 212.663064 -28.661125
369.181457 320.173142 -2.109773
1029.246652 152.097065 -21.274371
1029.238727 166.185289 -18.220476
743.786659 42.119740 -12.411205
1029.317852 166.310171 -11.196974
1029.074538 141.753036 -28.112455
1028.978325 226.681346 -19.098767
1029.070636 229.001683 -26.946571
470.194351 287.874428 -28.160780
1029.076318 154.088305 -26.648681
1029.022982 123.593200 -7.574731
1029.134247 165.425647 -17.916420
908.478402 117.912762 -4.105914
1028.993193 251.027087 -9.360745
1029.191202 138.906774 -12.100933
9.733948 217.378467 -3.089287
790.843373 212.671420 -15.948524
1028.987540 207.207378 -15.083185
1029.256612 249.121303 -18.632310
1029.083419 261.565138 -18.628778
1029.186294 141.644426 -26.875536
1029.125480 163.915666 -20.865933
1029.067550 187.903334 -11.437351
780.158774 212.668376 -28.398868
1028.977323 191.701105 -10.560304
136.762012 157.886033 -35.241693
1029.130325 227.908705 -11.363294
1029.161652 187.907923 -23.740786
917.318092 112.050313 -27.795378
1028.994581 191.539402 -20.807746
1029.089074 228.582486 -11.134421
1029.032689 139.337093 -11.491075
933.398134 181.904648 -26.601077
372.620258 58.008078 -18.904551
1028.977700 123.771931 -20.853404
1029.118109 188.779216 -7.828990
1029.058995 154.448558 -27.720059
431.909000 254.555876 0.000849
571.800609 223.136157 -35.699234
1029.130825 162.909080 -15.085360
1029.287445 139.578995 -9.591735
553.762919 386.717703 -5.626576
1029.138655 191.579951 -20.417899
786.346639 219.734890 -26.167735
715.766890 180.984733 -19.858679
1029.215009 263.230013 -9.648705
1029.156459 142.382262 -28.460508
1029.034368 200.459019 -7.800582
1029.114565 185.116480 -26.917102
1029.027159 188.449629 -8.741109
1029.088616 227.990706 -18.525192
1028.995233 188.013687 -23.848952
765.031567 192.170510 -30.103184
1028.976192 263.358560 -7.415076
1028.983311 138.661981 -6.366192
724.765200 65.306177 -28.070938
1029.056723 204.324582 -9.094241
1028.993735 205.652109 -16.980837
1029.000713 266.680231 -14.841078
1029.019230 264.554280 -17.341043
1029.020443 260.195748 -17.082613
821.465607 175.405034 -5.881505
1029.136234 190.187559 -24.030354
156.403068 220.656749 -30.899738
298.685173 273.589883 -36.959839
683.183337 184.782793 -5.501579
316.630399 180.962643 -17.334079
714.184742 222.232419 -3.767135
1028.992364 140.724015 -18.226469
1029.094447 201.959905 -15.364515
1029.288175 250.532170 -11.240318
1028.982169 140.578835 -8.523235
439.443102 55.281892 -33.122484
-499.239638 188.861679 -25.331514
1028.991480 184.793799 -26.995024
238.685207 223.218161 -4.396664
1029.263509 251.378450 -21.648380
-406.050591 125.790421 -36.188126
1029.055936 181.494904 -18.997324
311.992058 143.012457 -10.356745
1029.168282 189.604127 -16.148881
672.800943 171.387626 -26.427745
1029.060040 188.469406 -26.483053
1029.156936 166.796368 -19.504463
1029.062033 251.332961 -17.754174
966.619010 219.938969 -19.843053
1029.058731 251.612451 -21.507725
1029.209896 251.530546 -18.765869
1029.226357 141.141672 -26.962504
1029.035831 258.818714 -21.723534
1029.137454 191.840832 -7.148699
889.281258 102.800960 -27.448839
1028.992617 143.275617 -33.765066
552.777808 362.269045 -3.743898
1029.052570 231.238678 -23.593649
1028.981230 228.890302 -26.848342
1029.093284 251.035262 -4.689537
1029.019086 186.784368 -8.920433
1029.062089 229.606706 -11.842059
-486.612392 184.990074 -4.514576
593.822071 10.657170 -29.293839
1029.120593 200.514852 -29.478235
1029.055737 139.105929 -11.640209
693.220440 88.276920 -32.580608
1029.084872 192.212440 -20.238293
-156.249319 212.936410 -5.282721
658.131175 181.513460 -12.386526
1028.996143 151.715862 -17.273462
1028.994285 231.174448 -6.028807
411.591621 245.039275 -3.410562
612.927846 214.730316 -4.693210
1029.256785 153.702561 -22.613375
1029.274629 189.295571 -19.419725
1028.980026 266.824802 -15.162600
1029.044847 141.332420 -27.876488
1029.096721 252.600993 -23.946544
1029.235200 153.879772 -27.568629
-200.318065 213.604652 -36.168852
1029.187861 266.035594 -23.100899
1029.273908 151.732683 -17.452964
1029.014351 139.407205 -11.818104
116.441235 198.732712 -4.673695
1028.984348 184.826144 -32.941579
839.396977 151.433107 -3.341684
1028.980649 249.835231 -21.175183
987.612703 189.352963 -10.965957
1029.188393 230.634547 -28.444128
1029.080799 230.197874 -9.454699
812.777726 213.103032 -31.009489
1029.079907 272.075715 -6.574468
1029.065069 166.705688 -29.107270
1029.008500 206.564596 -15.792315
743.364400 159.935151 -2.333594
1029.067852 141.603446 -27.818469
1029.069269 165.176413 -18.524279
1029.133526 191.427176 -10.540003
510.597572 154.954270 -2.641196
495.922624 123.504739 -4.490760
743.216929 41.729418 -25.793681
1029.220334 140.786220 -22.054353
511.353752 210.768991 -34.731299
1029.175277 141.288491 -25.554240
521.022135 176.227997 -30.315790
1028.983994 232.598256 -35.049830
756.167720 139.014140 -4.520569
1029.228811 229.056026 -21.423484
1029.263211 229.727649 -8.828450
636.531446 180.703296 -29.459618
1029.255636 140.847097 -10.347196
1029.144526 262.952322 -22.063480
1028.985088 143.642631 -33.755904
1029.093018 189.431262 -22.359625
359.149396 331.783554 -2.609566
1029.246426 229.393185 -16.587050
1029.139657 191.405911 -25.144298
1029.093379 191.825392 -10.545870
1029.146176 187.848913 -9.040993
1029.240783 141.515258 -27.379984
-149.583608 378.519795 -6.210047
1029.025452 191.423095 -15.451683
727.482654 341.172361 -5.647270
355.508315 234.381991 -26.401475
738.665523 38.849286 -10.217183
1029.083022 262.773429 -19.497108
1029.086616 250.371744 -7.973811
1029.037398 262.781573 -26.167907
1029.137774 227.226450 -10.712844
1029.144133 141.824809 -12.094427
1028.988883 264.995240 -7.280992
1029.072346 230.843770 -24.585391
716.207248 35.755047 -28.855581
759.516747 45.746956 -11.841137
1029.022948 190.328694 -22.596931
383.695447 264.277235 -20.034618
-83.139457 106.572291 -26.042072
785.689179 143.259320 -5.849323
1028.999467 189.009184 -23.377562
354.752645 236.227315 -5.079704
1029.220458 185.847851 -11.251454
1029.284457 252.216365 -23.460776
1029.129728 164.701498 -20.667179
1029.238084 189.379812 -19.425016
1029.118967 255.401170 -11.213091
1028.998408 152.824558 -6.281295
1029.029557 189.622144 -9.059488
1029.097936 262.061277 -16.866182
1029.292222 139.341657 -20.537809
1029.028994 140.404660 -8.938870
867.631837 79.226389 -6.669473
1029.005844 140.255329 -9.204981
-497.816652 190.821685 -14.874992
422.364659 386.234165 -5.736371
1029.087163 227.049554 -11.271518
829.196206 188.703993 -19.352967
1029.258975 272.463903 -17.588611
73.282741 35.759451 -11.757095
1029.284670 252.620977 -25.589771
-223.886204 213.346524 -37.491230
1029.146218 191.360374 -20.366622
1029.105913 190.489401 -8.928432
1028.984297 152.167014 -15.410153
567.323982 195.975152 -35.031871
1028.977495 139.629717 -6.673073
214.555600 251.726051 -34.856941
1029.217982 189.239624 -24.197824
-8.667870 211.653267 -6.050477
805.361828 212.678350 -9.199199
-145.150897 18.862634 -26.244176
1029.331110 152.525238 -20.330589
123.930740 231.001943 -36.305578
1029.187656 251.079710 -22.841616
1029.318670 140.222168 -7.695200
656.730125 171.216665 -6.150641
1029.189180 152.203793 -9.786901
1028.984107 199.209111 -10.400203
1029.020630 165.105675 -19.151886
1029.009679 191.458190 -6.372217
1029.190473 154.549839 -27.821762
1029.119299 138.490448 -7.169665
22.344698 329.994707 -12.315469
1028.992859 189.529076 -21.214293
1029.200837 141.506837 -28.207214
1029.122687 189.627835 -12.980992
1029.110689 230.414989 -7.779148
312.749254 143.153193 -9.641848
1029.067094 190.358882 -21.601804
1029.149717 228.931587 -26.989552
565.052337 53.060818 -35.081524
783.948963 321.530812 -6.617901
1029.126705 199.221430 -20.196635
1028.978204 191.616251 -5.973972
1029.154759 191.002642 -23.581673
1029.118563 166.532241 -28.691753
910.134179 221.358709 -4.053270
1029.114841 139.297521 -11.567960
411.558032 245.110662 -3.276845
1029.136270 191.163161 -23.318089
794.265488 56.106593 -10.672777
1029.105731 205.069380 -15.635904
1028.991614 151.329544 -19.248305
-498.138787 191.147950 -14.838116
372.583227 54.707716 -20.816006
1029.120078 187.702432 -9.310782
1029.163817 184.148452 -21.974278
1029.312471 248.234907 -9.873754
655.383670 145.112706 -33.295887
1029.328978 136.843542 -18.881703
1029.094399 248.978200 -25.149447
1029.222021 229.310936 -11.098716
1029.172426 140.413768 -21.018412
1029.112981 188.285432 -16.581198
1029.118423 167.132526 -29.081801
1029.032436 162.086172 -8.090933
1029.041121 142.217793 -6.243565
1029.236015 251.014534 -17.909152
500.320266 211.866201 -35.247574
648.580763 239.415544 -1.864867
1028.977966 139.590846 -10.513834
1029.013381 155.959542 -27.775785
736.935032 178.848957 -26.567315
377.698818 257.231958 -33.509858
1029.030631 206.195502 -29.210784
1029.020288 191.442614 -6.282925
1029.122752 191.332256 -15.803695
1029.022018 152.098673 -9.721617
1028.979961 185.456998 -7.675500
459.392984 5.477871 -28.220205
1029.034602 250.235039 -24.035320
1028.995501 195.148381 -11.832256
372.583433 59.776160 -12.460715
-79.182767 218.329431 -6.173648
1029.121923 139.486113 -10.572183
1028.993989 138.911566 -6.091481
1029.016906 187.725508 -9.274138
1029.048186 204.788225 -27.515886
1029.281845 164.317919 -10.568704
324.585393 309.301555 -37.787387
915.290828 278.172921 -5.760628
124.861053 228.773848 -36.178111
790.723236 54.209541 -8.749672
400.884835 273.474580 -5.355285
1029.080642 139.809185 -8.448109
750.437909 166.161271 -2.346055
1029.190996 251.339016 -24.093351
823.576133 212.679033 -8.359305
500.217908 196.562144 -19.948486
172.195460 213.912748 -37.121896
1029.091622 188.026010 -8.426024
586.946002 158.034424 -1.582557
1029.233175 246.857364 -23.058501
792.353907 336.952475 -26.242078
1029.182799 226.565878 -26.855878
1029.101006 187.965896 -24.494495
1029.001557 265.025473 -24.043119
1029.035127 184.774956 -22.472807
1029.077783 191.459570 -6.368736
1029.147602 265.728428 -24.808093
1028.979811 266.614511 -21.884949
914.051585 307.695691 -24.008306
89.948383 178.801526 -26.227573
378.075462 7.721897 -0.963226
1029.072314 141.391280 -11.738849
1008.549972 151.941694 -5.459324
1029.042814 142.222528 -5.287601
867.423535 287.546475 -6.606439
1028.976670 203.821537 -17.213312
</DataArray>
</Points>
<PointData>
<DataArray NumberOfComponents='1' type='Int32' Name='ParticleType' format='ascii'>
1
1
1
1
1
1
1
1
1
1
1
1
1
1
1
1
1
1
1
1
1
1
1
1
1
1
1
1
1
1
1
1
1
1
1
1
1
1
1
1
1
1
1
1
1
1
1
1
1
1
1
1
1
1
1
1
1
1
1
1
1
1
1
1
1
1
1
1
1
1
1
1
1
1
1
1
1
1
1
1
1
1
1
1
1
1
1
1
1
1
1
1
1
1
1
1
1
1
1
1
1
1
1
1
1
1
1
1
1
1
1
1
1
1
1
1
1
1
1
1
1
1
1
1
1
1
1
1
1
1
1
1
1
1
1
1
1
1
1
1
1
1
1
1
1
1
1
1
1
1
1
1
1
1
1
1
1
1
1
1
1
1
1
1
1
1
1
1
1
1
1
1
1
1
1
1
1
1
1
1
1
1
1
1
1
1
1
1
1
1
1
1
1
1
1
1
1
1
1
1
1
1
1
1
1
1
1
1
1
1
1
1
1
1
1
1
1
1
1
1
1
1
1
1
1
1
1
1
1
1
1
1
1
1
1
1
1
1
1
1
1
1
1
1
1
1
1
1
1
1
1
1
1
1
1
1
1
1
1
1
1
1
1
1
1
1
1
1
1
1
1
1
1
1
1
1
1
1
1
1
1
1
1
1
1
1
1
1
1
1
1
1
1
1
1
1
1
1
1
1
1
1
1
1
1
1
1
1
1
1
1
1
1
1
1
1
1
1
1
1
1
1
1
1
1
1
1
1
1
1
1
1
1
1
1
1
1
1
1
1
1
1
1
1
1
1
1
1
1
1
1
1
1
1
1
1
1
1
1
1
1
1
1
1
1
1
1
1
1
1
1
1
1
1
1
1
1
1
1
1
1
1
1
1
1
1
1
1
1
1
1
1
1
1
1
1
1
1
1
1
1
1
1
1
1
1
1
1
1
1
1
1
1
1
1
1
1
1
1
1
1
1
1
1
1
1
1
1
1
1
1
1
1
1
1
1
1
1
1
1
1
1
1
1
1
1
1
1
1
1
1
1
1
1
1
1
1
1
1
1
1
1
1
1
1
1
1
1
1
1
1
1
1
1
1
1
1
1
1
1
1
1
1
1
1
1
1
1
1
1
1
1
1
1
1
1
1
1
1
1
</DataArray>
<DataArray NumberOfComponents='1' type='Int32' Name='ParticleID' format='ascii'>
0
1
2
3
4
5
6
7
8
9
10
11
12
13
14
15
16
17
18
19
20
21
22
23
24
25
26
27
28
29
30
31
32
33
34
35
36
37
38
39
40
41
42
43
44
45
46
47
48
49
50
51
52
53
54
55
56
57
58
59
60
61
62
63
64
65
66
67
68
69
70
71
72
73
74
75
76
77
78
79
80
81
82
83
84
85
86
87
88
89
90
91
92
93
94
95
96
97
98
99
100
101
102
103
104
105
106
107
108
109
110
111
112
113
114
115
116
117
118
119
120
121
122
123
124
125
126
127
128
129
130
131
132
133
134
135
136
137
138
139
140
141
142
143
144
145
146
147
148
149
150
151
152
153
154
155
156
157
158
159
160
161
162
163
164
165
166
167
168
169
170
171
172
173
174
175
176
177
178
179
180
181
182
183
184
185
186
187
188
189
190
191
192
193
194
195
196
197
198
199
200
201
202
203
204
205
206
207
208
209
210
211
212
213
214
215
216
217
218
219
220
221
222
223
224
225
226
227
228
229
230
231
232
233
234
235
236
237
238
239
240
241
242
243
244
245
246
247
248
249
250
251
252
253
254
255
256
257
258
259
260
261
262
263
264
265
266
267
268
269
270
271
272
273
274
275
276
277
278
279
280
281
282
283
284
285
286
287
288
289
290
291
292
293
294
295
296
297
298
299
300
301
302
303
304
305
306
307
308
309
310
311
312
313
314
315
316
317
318
319
320
321
322
323
324
325
326
327
328
329
330
331
332
333
334
335
336
337
338
339
340
341
342
343
344
345
346
347
348
349
350
351
352
353
354
355
356
357
358
359
360
361
362
363
364
365
366
367
368
369
370
371
372
373
374
375
376
377
378
379
380
381
382
383
384
385
386
387
388
389
390
391
392
393
394
395
396
397
398
399
400
401
402
403
404
405
406
407
408
409
410
411
412
413
414
415
416
417
418
419
420
421
422
423
424
425
426
427
428
429
430
431
432
433
434
435
436
437
438
439
440
441
442
443
444
445
446
447
448
449
450
451
452
453
454
455
456
457
458
459
460
461
462
463
464
465
466
467
468
469
470
471
472
473
474
475
476
477
478
479
480
481
482
483
484
485
486
487
488
489
490
491
492
493
494
495
496
497
498
499
</DataArray>
<DataArray NumberOfComponents='1' type='Int8' Name='IsActive' format='ascii'>
1
0
1
0
0
1
0
0
1
1
0
1
1
1
1
0
0
0
1
0
0
1
0
1
0
0
0
0
1
0
1
1
0
0
0
0
0
0
1
0
0
1
1
0
0
1
1
0
0
1
0
0
0
1
1
0
1
1
0
1
0
0
0
0
0
1
1
0
0
0
0
1
0
0
1
1
0
0
0
1
0
0
0
0
0
1
0
0
0
0
1
0
0
0
0
1
0
0
0
0
0
1
0
1
1
0
0
0
1
0
0
1
1
0
0
0
1
0
1
0
1
0
0
0
0
1
0
0
0
0
1
1
0
0
0
0
0
0
0
1
0
0
1
0
0
0
0
0
0
0
0
0
0
0
0
0
0
1
1
1
1
0
0
0
1
0
0
1
1
1
1
0
0
1
0
0
1
0
0
0
0
0
0
0
1
0
0
0
1
1
0
0
0
0
1
0
0
1
0
0
0
0
1
0
0
0
1
0
0
1
0
0
0
0
0
0
0
0
0
1
0
0
1
0
0
0
1
0
0
0
0
0
1
0
0
1
0
1
1
0
0
0
0
0
0
0
0
0
0
1
0
0
0
0
0
1
0
1
1
1
1
1
0
0
0
0
1
1
0
1
0
1
0
1
0
1
0
0
0
1
0
0
0
0
0
1
0
1
0
0
0
0
0
1
1
0
0
1
0
1
1
0
0
0
1
0
0
0
0
0
0
1
0
0
0
1
0
1
0
1
0
0
1
0
0
0
1
0
0
0
1
1
1
0
1
0
1
0
1
0
0
1
0
0
0
0
1
0
0
0
0
0
1
0
1
1
1
0
0
0
0
0
0
0
1
1
0
1
1
1
0
1
0
0
0
0
0
0
0
0
0
0
1
0
0
0
0
1
0
1
0
1
0
0
0
1
0
1
0
1
0
1
0
1
0
0
1
0
0
0
0
0
0
1
0
0
0
0
1
0
0
1
1
0
0
0
0
1
0
0
0
1
0
0
0
0
0
0
0
1
0
0
0
0
0
0
0
0
0
1
1
0
0
1
1
0
0
0
0
0
1
0
0
0
1
0
0
0
0
0
1
1
1
1
0
0
1
0
0
1
1
0
1
0
1
0
0
0
0
0
0
0
1
1
0
0
1
0
1
0
</DataArray>
<DataArray NumberOfComponents='1' type='Int32' Name='ParticleTetID' format='ascii'>
63128
-61515
1351
-58952
-58962
24426
-66558
-58952
63146
64712
-66561
98736
26155
62048
62984
-64917
-61508
-68099
76051
-66554
-59783
56414
-58961
81758
-64916
-70586
-61515
-61512
27395
-68100
62932
71498
-68099
-72204
-112396
-72204
-66561
-66555
63068
-66557
-66585
62154
63863
-66560
-69092
7541
61015
-72204
-64920
63057
-64914
-58952
-61515
83089
19262
-61512
71605
21938
-64917
68116
-66561
-64914
-68100
-72203
-72213
82654
59435
-64917
-66552
-66551
-66552
15137
-112396
-64916
65126
62689
-72213
-58965
-63131
65362
-66549
-72207
-64920
-66554
-58961
64207
-68099
-61515
-66557
-66558
61611
-64917
-72207
-66561
-61515
57618
-172329
-58952
-64919
-66548
-66561
33269
-58962
3810
8485
-58955
-61518
-59786
8413
-66554
-66554
2273
68852
-61518
-70584
-58965
87804
-64914
10802
-61518
95997
-61508
-64917
-66554
-62952
40066
-146594
-63024
-58962
-66560
57170
17030
-64914
-66588
-61518
-59791
-61512
-72207
-112396
5402
-72210
-58965
61522
-61512
-58955
-68096
-66594
-58955
-59791
-156163
-66588
-64911
-61515
-58955
-68105
-68099
-66551
52068
60968
74413
72418
-68099
-64916
-58958
69176
-72207
-64914
85994
61386
63472
26936
-66560
-58958
72504
-61511
-72203
10690
-61514
-72204
-58958
-72213
-64919
-61512
-68099
98736
-68105
-64919
-68099
70388
19134
-58962
-61518
-59783
-63014
24968
-66558
-59786
63599
-59783
-66560
-58958
-58965
53726
-66557
-66588
-59786
60445
-64914
-66551
32294
-63044
-72207
-64916
-68102
-66561
-59788
-61511
-63015
-61512
99715
-58955
-61518
78582
-61518
-58955
-66551
59932
-84717
-66594
-61512
-66561
-136563
75813
-59785
-66551
61346
-61518
65260
63187
-68099
-66560
-72204
-61521
-61512
-58958
-61518
-63212
-68100
-66585
58136
-72204
-72207
-68103
-68102
-64917
58826
-61518
90705
25271
63127
43694
63020
-66554
-72207
-64913
-66551
87372
19217
-61521
32239
-64920
2213
-61514
45131
-61515
71920
-61517
-59786
-64916
61639
-64920
-64916
-66561
-64920
-61512
58710
-66564
77528
-58961
-58965
-64910
-61512
-58955
10837
70862
-72213
-66551
62365
-61518
7508
63149
-66555
-58952
-126563
68041
-66558
-61514
-68103
-66560
-64919
-66561
7505
-68105
-66555
-66551
41150
-61520
62874
-64920
66803
-58965
-58955
62959
-68096
-59791
-72207
71406
-66560
-59786
-61512
69102
51571
63604
-66557
66417
-66557
60979
-58968
64135
-58962
-58955
72966
-66551
-68105
-66564
-61518
28658
-58958
-61518
-61512
-61512
-66561
13609
-61515
68887
51292
63599
-68102
-64914
-68105
-58955
-66551
-68100
-58961
66126
63472
-61518
82198
6292
62120
-61518
51283
-61511
-64920
-59788
-61514
-64914
-66548
-61512
-68102
-66557
-66551
63615
-66551
-19215
-112399
-58955
67039
-68102
37156
-64919
7414
-61518
-61512
-66555
69747
-66552
90335
-61518
6229
-62951
18353
-66558
92064
-64920
-66551
57781
-66552
-72203
-59786
-61508
-66561
-66588
40378
-61518
-66560
-61511
-58956
45131
-61518
-58965
74285
74126
-72210
-61509
-61518
-59791
58734
-66551
-126559
-61518
63671
-72207
-66554
-19215
-85665
-61512
-61518
-64913
61195
-66591
-64919
-58955
-66557
-61515
-59791
-59782
-66548
-64916
64762
65034
-66551
-66561
63100
82391
-72213
-61508
-61515
-66552
-61512
53222
-64919
-72203
-84632
18865
-66551
-66548
-61512
-72213
-59783
27395
59186
91184
63671
-127033
-66551
70380
-64919
-62952
64825
37942
-61512
68508
-64919
63406
-58965
-61518
-68105
-61518
-61508
-68105
-68106
63964
98736
-153844
-66551
76177
-66548
66781
-72207
</DataArray>
<DataArray NumberOfComponents='3' type='Float32' Name='vels' format='ascii'>
0.018016 -0.000007 0.000645
2.941750 0.743093 0.251364
0.436929 -0.189994 0.000080
1.486189 -0.320619 0.095067
4.011166 -0.808442 0.007605
0.290243 0.182625 -0.000143
5.291425 0.658114 0.015048
1.176154 -0.254865 0.050298
0.058203 -0.000072 0.000756
1.054604 0.087845 0.004026
4.043204 0.516567 -0.062035
-0.000242 0.001790 -0.000222
1.320110 0.526787 0.037943
0.067077 0.010807 0.001754
0.008683 0.000031 0.000299
4.781214 -0.633258 0.223552
2.072237 0.492204 0.162694
1.841632 -0.359408 0.096556
0.713541 0.094806 0.000734
4.618366 0.202199 0.374453
4.057130 0.583726 0.325260
1.512619 0.545632 -0.003018
3.564954 -0.948543 -0.100939
0.001533 0.001042 0.000792
5.081494 -0.728568 0.061442
2.709453 -0.571234 0.037044
2.890267 0.733475 0.271122
2.291721 0.555347 0.251364
0.229645 0.040273 -0.000572
0.600488 -0.175699 0.015577
0.627004 -0.004170 0.000589
0.517856 0.150018 -0.000794
3.213363 -0.761119 -0.003224
1.656845 -0.012767 0.231690
30.832558 8.406263 0.242404
1.694059 0.173883 0.293947
3.361597 0.485264 0.057820
5.072144 0.616756 0.203979
0.005664 0.000003 -0.001289
4.822554 0.159554 -0.071552
0.163137 0.014290 0.007623
0.668900 0.092180 -0.000535
0.790373 0.129122 0.000351
3.522981 0.454183 -0.022000
1.981235 -0.030602 0.001087
0.054080 -0.000226 -0.001633
1.616598 0.141952 0.000146
1.580142 0.029803 0.349836
5.038774 -0.652624 0.013047
0.372785 0.002805 0.000151
2.926561 -0.297746 0.581025
1.155041 -0.250378 0.045583
2.831417 0.656188 0.157502
0.003906 -0.039167 0.029949
-0.000182 0.000179 -0.000389
2.459462 0.587685 0.168515
1.102045 -0.223629 0.000827
0.883292 0.322087 -0.005460
4.325011 -0.485807 0.474073
1.016038 0.291078 0.001412
3.969074 0.510293 -0.043608
3.009809 -0.323029 0.523657
2.087373 -0.571330 0.004354
2.169836 0.361286 0.178099
1.625300 0.032475 -0.102624
0.000814 0.004183 -0.012683
1.258821 0.028166 -0.002802
4.340364 -0.231916 0.365021
3.114425 0.129711 0.500337
4.121013 0.480241 0.104173
3.314428 0.340714 0.441299
0.262847 0.074839 -0.003270
46.675339 14.517866 -0.076229
4.966831 -0.741021 0.103249
0.017806 0.001007 0.000298
0.639705 -0.002382 0.000333
1.666596 0.213651 -0.091226
4.058145 -0.762731 -0.344492
1.889371 0.057292 0.002064
0.124084 -0.002611 -0.001458
0.106433 0.018253 0.009396
2.447300 0.404613 0.136695
4.955756 -0.666599 0.026369
5.270291 0.597518 0.093265
3.790543 -0.755850 0.004429
1.771138 0.212092 0.007105
3.198346 -0.576469 0.091015
2.891380 0.658313 0.072510
4.708169 0.714293 0.041555
5.286538 0.662013 0.016323
0.093865 0.023729 0.000395
4.335292 -0.493674 0.469468
2.376679 0.415278 0.303110
3.978817 0.514039 -0.035953
2.925429 0.736889 0.253986
0.162690 0.058044 0.000214
16.443892 0.216408 0.432539
1.565890 -0.337596 0.089770
4.657912 -0.665986 -0.017331
0.402313 0.016930 0.069481
4.122142 0.520750 -0.092827
0.606935 0.090866 0.000728
4.068510 -0.838672 0.002245
-0.003145 -0.000006 0.001900
0.329013 0.055772 -0.000154
3.529941 -0.711878 0.030954
2.701473 0.675651 0.006233
5.068028 0.739679 0.098900
0.992057 0.153041 0.004105
5.282705 0.607003 0.090999
4.672356 0.220515 0.340548
0.001366 0.000288 0.001627
0.443001 0.054689 -0.000714
2.719856 0.689432 0.014472
1.875758 -0.371275 0.170103
3.526443 -0.813141 -0.314200
-0.001071 -0.000487 -0.001960
2.977139 -0.317598 0.549789
0.002801 0.000158 0.002124
2.856396 0.655576 -0.021302
-0.086094 -0.061028 0.001530
1.562766 0.369950 0.099079
5.097804 -0.739710 -0.004191
5.187976 0.534039 0.131804
2.184550 -0.057329 -0.002896
-0.006450 -0.002295 -0.000051
0.063052 -0.112684 0.126129
0.384938 -0.001348 0.000332
3.941319 -0.939718 0.019078
3.094111 0.466580 0.051646
0.714619 0.136805 0.000401
0.100842 0.000170 -0.001135
2.947628 -0.317004 0.559127
3.315421 0.229466 0.303735
3.114699 0.812712 -0.006021
3.981705 0.784788 -0.179278
2.397503 0.576482 0.045044
2.262234 -0.103763 0.199135
46.605008 17.425592 -0.121316
0.200493 0.004480 0.001894
2.453705 0.036037 -0.002453
3.273935 -0.703619 -0.146819
0.022372 0.016023 0.001768
2.267504 0.537684 0.170558
3.031390 -0.650702 0.168210
0.798581 -0.043527 0.108054
1.769560 0.186691 0.019901
3.485382 -0.705401 0.047642
4.244217 0.718171 -0.088138
0.078912 -0.035162 -0.038296
3.309975 0.272851 0.268077
0.028963 -0.002091 0.012138
3.143853 0.750221 0.009430
3.065246 -0.673178 0.198509
4.241233 -0.744797 0.007929
2.531490 -0.450644 0.122602
3.991307 0.425104 0.155119
1.420079 1.337146 0.004736
0.199047 0.057187 0.001282
0.726957 -0.059808 -0.000601
1.762745 -0.613122 -0.016160
3.337287 -0.471002 0.163648
4.864729 -0.743999 0.144699
4.023324 -0.834694 0.046985
0.007089 0.000126 0.000394
2.333838 0.209392 0.090805
2.983754 -0.330680 0.536378
0.000466 -0.000160 0.005071
0.004698 -0.000002 0.000826
0.488334 0.141320 -0.000136
1.322312 0.326337 -0.004175
2.912069 0.446903 0.058844
4.195891 -0.823559 0.007726
1.194373 0.025269 0.001193
3.421469 0.801853 0.232091
1.914013 0.373947 0.333840
-0.001063 -0.000157 0.000122
3.917611 0.961390 0.066384
1.535828 0.082314 0.421986
3.998002 -0.839101 0.052347
2.110943 0.365026 -0.216448
4.558290 -0.718325 -0.153658
2.517882 0.602668 0.087560
2.602964 -0.618944 0.038887
-0.006488 0.004217 -0.000441
3.746715 -0.624846 0.010220
4.537418 -0.639668 -0.001990
2.525898 -0.494562 0.096555
3.004480 0.153937 0.000560
0.395154 -0.128887 -0.000189
4.022468 -0.876011 0.007542
3.114020 0.835475 0.004567
4.032579 0.575637 0.282121
1.501351 -0.039478 -0.000088