<VTKFile type='UnstructuredGrid' version='1.0' byte_order='LittleEndian' header_type='UInt64'>
<UnstructuredGrid>
<Piece NumberOfCells='500' NumberOfPoints='500'>
<Points>
<DataArray NumberOfComponents='3' type='Float32' Name='Position' format='ascii'>
-141.974280 235.432541 -4.865185
330.246193 84.763734 -21.463214
-439.748836 294.042739 -6.330857
-222.836537 268.689803 -10.268269
443.684010 255.679696 -5.358694
-356.282120 143.555102 -1.988600
325.755642 69.675257 -27.980099
-102.675255 325.291983 -7.379152
-145.722720 234.449584 -5.185658
-287.601804 256.984014 -4.802626
24.905947 188.711496 -32.486457
-317.080576 65.594667 -29.903836
-315.206001 220.521752 -6.053239
-174.457327 137.432044 -3.976831
15.092758 250.160777 -6.826429
303.884890 310.263937 -16.052152
261.202333 193.915653 -9.248245
209.557704 219.618610 -13.079119
-360.768222 281.530056 -6.367856
301.650581 57.308468 -21.588469
532.946883 89.257433 -12.997959
-165.281874 50.380830 -4.338974
462.478129 252.059662 -22.002736
-19.368298 369.732788 -15.783722
314.088415 310.963673 -19.292383
478.216027 228.238522 -16.196385
-270.628067 212.889645 -23.788859
466.514409 79.441417 -8.822860
-209.383280 325.442307 -37.533356
-22.344953 338.602950 -7.053989
491.045643 209.994065 -14.049067
-227.399480 155.525513 -2.625279
54.168456 311.957498 -11.516808
309.449233 229.524856 -11.564259
-364.942547 312.846825 -19.636574
114.418726 202.404826 -8.973679
347.885406 48.816937 -25.157652
367.492494 39.777447 -6.260365
25.592555 228.508373 -30.844093
45.000739 168.249685 -28.096752
-31.246589 65.307842 -7.140129
-161.052720 145.780886 -4.010782
-169.139048 145.013799 -37.041981
-69.988171 28.758718 -32.438704
491.123835 211.686258 -18.536940
-396.695217 216.113612 -37.702044
-190.468475 61.231833 -35.255776
483.226874 218.320821 -9.858919
268.064449 292.278823 -22.492933
287.359265 218.545926 -9.883689
291.307863 291.473729 -13.504831
-161.780972 250.248036 -6.504407
453.206203 76.005085 -15.730734
-201.256915 329.507818 -37.307208
-497.176760 188.273874 -1.996406
4.393908 204.299442 -8.029169
-162.688605 337.700741 -5.599858
-486.675371 182.885839 -32.481879
306.244687 304.230422 -20.568240
11.777431 97.053759 -14.344666
-212.320458 142.346020 -34.044701
289.544362 279.864889 -13.698721
-32.374496 372.090987 -10.220169
300.488497 209.821861 -10.755802
149.522313 194.860641 -31.727633
-237.759853 252.924953 -37.427672
-50.479181 181.995655 -32.661554
301.034534 315.307362 -19.887016
15.498409 139.978313 -9.092252
307.598209 90.666112 -13.981114
-70.292528 78.064237 -14.054125
-384.048563 184.071637 -35.278479
60.583758 319.143188 -21.764009
309.092784 297.189449 -25.048819
-186.500643 239.816882 -3.019432
-221.989721 225.328734 -32.695975
273.521462 217.595466 -29.653813
286.037114 236.165509 -28.471959
476.040423 220.254619 -11.111397
339.488956 224.893821 -15.767017
-309.074827 139.959839 -6.645105
458.668851 225.621817 -11.271582
165.373022 209.552985 -27.904962
310.928068 82.358029 -20.410073
447.801143 251.503425 -6.960414
-183.833599 138.625829 -3.667990
12.456696 321.939008 -11.840103
426.551680 69.343864 -5.634428
239.750919 163.485090 -22.980396
414.143642 34.737712 -6.665615
-202.899093 232.475044 -35.299994
318.107737 308.926059 -20.436424
460.111253 222.923038 -12.603759
27.758064 190.052980 -32.152775
306.923017 143.623769 -22.867882
-239.658600 231.283916 -2.641236
-274.639371 221.471870 -2.387775
-115.212485 281.168746 -10.117876
62.487309 274.573234 -30.805501
12.991783 148.659107 -9.490875
56.290614 200.484066 -31.757272
-322.972843 329.911450 -12.060826
-213.444587 306.851164 -23.348825
-433.209570 176.975238 -26.652681
-401.641737 244.484994 -19.631221
287.956396 245.285543 -13.321566
-256.812297 178.181087 -24.335604
539.823234 96.389418 -17.903618
-401.559464 243.791635 -19.854122
85.725026 182.751441 -20.287721
311.591986 72.016327 -24.283351
-502.497744 192.141718 -10.213579
-175.714602 350.728348 -3.376321
-56.253651 192.549917 -23.297611
24.283358 250.450147 -7.122541
73.247451 240.495126 -31.939035
318.806536 193.911263 -25.172230
227.503736 229.898449 -12.897132
-443.154304 295.586581 -6.059723
-164.449041 214.015876 -27.188332
-251.583985 56.116881 -35.966697
-64.858039 159.702047 -6.768110
270.058135 295.034296 -15.154576
255.657853 164.291323 -18.969005
304.527118 225.950212 -10.536456
-190.596101 344.242012 -33.902994
-189.953733 125.097341 -17.791330
286.716523 219.510133 -10.071446
49.259000 257.838559 -23.749143
-16.513112 110.873962 -32.411407
-288.360497 97.706365 -4.731724
-402.291539 212.206216 -4.700067
305.771682 295.843557 -13.822205
282.638656 157.995582 -15.153721
-14.732876 207.528696 -27.066941
196.311806 181.550725 -30.978615
-44.985120 193.784635 -9.139898
465.605004 228.073665 -15.459659
-2.582682 340.836899 -23.392456
-414.326867 210.373854 -3.393824
315.696291 210.291734 -20.283696
103.204212 219.999019 -30.810744
7.291953 204.436342 -32.419755
497.295854 113.406203 -9.200159
488.214531 248.892396 -11.704311
0.036147 333.434406 -11.156279
-7.750301 50.349246 -23.515214
274.137460 237.649629 -12.000816
108.712363 195.243213 -31.429556
60.113569 211.943994 -32.728166
39.310787 167.705991 -13.217488
83.737382 269.127711 -8.396967
502.324871 123.865406 -14.059631
318.931085 262.933775 -17.471308
100.715794 277.651033 -25.332998
-403.046258 302.186277 -13.347747
-10.292244 49.202326 -14.873753
-382.682684 181.619204 -32.740400
-248.238572 222.750871 -2.883107
-295.889766 220.693587 -5.396124
314.851630 233.416154 -11.755623
-387.215426 306.882402 -13.269198
287.341731 279.616888 -25.215522
-219.067069 301.269240 -21.709060
-161.380500 60.525033 -6.674512
312.572237 233.903816 -11.980751
152.848434 206.534927 -11.674005
315.649962 194.576161 -24.591576
7.605818 91.940777 -14.137102
-45.734355 24.466610 -13.927613
-420.591897 302.752257 -19.629680
-41.405821 106.698878 -28.916359
504.034662 251.170758 -16.196609
-110.710600 257.853118 -6.742517
86.452340 211.017484 -15.019554
305.977908 216.972026 -12.113964
-521.705728 274.556787 -37.131834
308.525243 199.210176 -20.300695
313.739201 237.410774 -11.055759
514.173539 252.808343 -17.498532
352.736279 233.457287 -24.505713
57.147883 279.582468 -32.021097
24.788591 205.555184 -7.791176
106.460237 265.867934 -13.632559
-120.290865 20.782092 -26.972808
241.003042 282.067771 -25.812442
224.327642 224.985470 -27.242430
-204.757000 362.745004 -17.569364
-354.167225 176.866321 -19.980195
-364.999484 276.199779 -3.061512
-212.022334 308.714261 -24.583444
114.574708 196.400194 -29.412652
518.465480 79.499707 -12.289800
324.420587 236.896825 -27.602873
-214.109971 333.855284 -2.799061
299.262372 140.823271 -27.987904
546.164847 103.368272 -18.208971
27.600395 122.832053 -15.397321
313.285061 99.994969 -13.857361
-18.602678 110.881107 -32.816039
492.549817 247.765343 -19.900775
193.302439 199.175487 -28.021065
-180.293062 346.289650 -34.803650
93.286867 197.407604 -30.540736
-17.929367 48.461058 -10.636932
547.122157 99.085076 -17.871130
-234.011367 82.523273 -4.905543
-59.353254 320.107800 -12.539525
325.273155 38.936805 -16.960526
-433.549034 183.059388 -2.326298
497.081126 207.908298 -16.932993
500.102419 214.108513 -15.477165
291.879622 292.659447 -19.758215
268.520914 318.490448 -21.181615
-7.134010 104.297619 -31.990147
529.342831 85.661741 -20.738059
192.747884 186.063080 -15.154197
273.923230 219.075520 -29.572038
303.664664 177.046634 -12.773228
-243.933901 50.307151 -34.514891
375.761092 263.173652 -8.606605
-311.755676 181.915691 -29.864705
-274.275441 90.223540 -34.250719
309.353420 181.674421 -22.818010
509.649665 249.921840 -11.948772
-31.458702 41.007605 -19.702290
222.872758 193.277544 -28.679290
-201.352864 222.216952 -36.016237
-8.186451 51.779362 -23.997962
-70.683809 178.972715 -8.467416
5.634283 169.794672 -29.625567
-196.641664 252.974275 -3.370715
-168.107657 230.926739 -36.070568
347.253773 47.924684 -15.974770
-119.971503 30.103469 -13.431777
-184.363171 364.503605 -6.946888
294.766163 192.349050 -24.015281
-314.755437 223.381195 -33.173097
-163.007627 223.197990 -18.799969
19.121346 315.606024 -8.469355
-198.496051 64.107875 -34.673643
41.724459 234.031251 -7.445256
-1.647900 208.642624 -28.891297
211.852651 186.602735 -11.077993
497.246018 248.892404 -19.136443
-291.405218 213.093498 -29.578182
117.943217 202.209940 -31.477077
8.751343 331.232582 -14.518119
-57.857000 57.782168 -6.796611
-234.288448 128.524220 -34.783943
278.485722 214.968054 -9.724136
504.692399 207.728689 -16.585444
120.632715 247.041059 -17.035723
96.324980 285.442572 -21.694732
284.726991 312.999852 -18.370440
-256.590694 173.003172 -4.846964
-129.614113 220.216116 -23.897330
-389.309406 314.203290 -31.699225
-329.224278 288.792530 -36.944970
-29.622895 237.523793 -6.703123
318.945577 193.561509 -17.656115
-186.394803 238.603029 -3.448841
326.710909 42.934936 -21.453180
487.437815 210.921860 -14.962173
325.516080 296.448765 -15.828954
319.828262 48.157034 -15.992137
-222.231860 169.284387 -36.842343
-498.592318 188.439378 -24.229617
256.161802 197.729719 -28.025086
-322.758632 255.577501 -3.911546
296.005421 300.542305 -25.308590
-405.857111 126.211300 -36.037774
498.249200 97.452393 -19.424974
-239.582554 174.293497 -12.669209
480.285966 96.215741 -16.345609
-340.136074 176.288022 -26.617435
22.352683 213.335632 -27.835572
504.244320 72.896941 -19.604109
299.432839 295.932493 -22.689484
351.014489 255.494543 -26.715209
297.350680 301.820528 -26.306737
309.737061 298.288994 -25.054026
-13.563636 109.625724 -32.174289
272.551271 296.584022 -22.799332
-0.613768 208.000317 -9.716101
-281.610808 133.151646 -34.407773
49.496001 175.338334 -28.431912
-221.724161 349.041796 -4.351401
83.418018 252.683737 -27.208547
-244.852865 260.794392 -32.190960
59.655518 280.845130 -7.903909
478.927918 89.078474 -9.279643
521.740326 250.672709 -13.374352
-502.940375 192.928577 -4.720911
-310.713849 75.973456 -33.858503
115.554382 204.405994 -31.950848
319.327751 44.306072 -16.436397
-283.109907 136.041482 -32.107646
12.247253 221.333849 -21.579102
-448.299366 211.502706 -4.690040
-320.492747 215.935381 -12.640034
-37.180027 111.630907 -24.340501
-52.827401 305.889162 -8.232806
411.591621 245.039275 -3.410562
-7.282234 237.616585 -6.738643
130.198527 185.163991 -31.940717
321.026718 104.608723 -23.894785
-346.258237 316.230300 -19.960352
-260.935731 89.303096 -33.612938
116.141627 235.411322 -27.767248
193.543632 177.177606 -29.935146
-442.558750 212.022753 -36.535734
-366.265718 307.692892 -26.667514
313.828014 72.182150 -18.335232
308.881706 63.460317 -15.650730
-378.180671 212.715755 -3.943980
62.796501 212.271380 -31.722385
-153.859578 149.383762 -3.848793
308.581473 300.024260 -20.835960
345.422300 237.647995 -13.527037
97.550096 225.383848 -32.329380
289.856573 245.593883 -11.953611
49.609508 231.750305 -32.319329
-26.068433 366.014672 -9.999738
-227.979786 174.632989 -35.561326
505.888116 211.520541 -15.865405
-187.830139 164.849346 -3.572144
-27.693662 55.941105 -32.576481
536.557380 89.897133 -18.271536
161.956127 186.923831 -12.549797
-306.069809 216.807563 -2.899051
-314.523128 176.980873 -5.329381
-37.861291 34.982636 -31.157801
165.694161 170.065417 -27.527105
-203.320362 231.846934 -37.745402
129.163810 170.391376 -27.370024
-160.238160 222.996770 -31.363213
64.097377 231.171407 -33.049222
-150.613529 140.520222 -5.974958
492.948704 249.658747 -21.522272
261.727134 230.343389 -11.067105
-331.808021 217.971373 -32.673475
47.061921 173.170683 -12.918460
-22.214261 360.829933 -27.741214
-242.955982 78.815830 -34.183335
7.604216 210.385162 -27.265570
-257.896318 326.641145 -2.518118
-226.065482 261.992425 -19.555613
-9.892205 221.920112 -28.415175
-12.022192 224.312580 -8.899658
461.526623 76.783264 -8.898121
-6.060840 113.350372 -31.776471
-434.160735 297.187585 -6.666943
-156.271910 174.944651 -17.468617
-125.171405 354.982530 -6.067272
-392.758149 217.014519 -26.593235
-84.429309 19.406697 -8.759272
259.132619 305.248672 -18.851573
64.769879 275.961000 -8.192100
50.494414 296.978095 -31.934626
469.426358 247.866343 -9.080922
322.528797 41.512645 -17.727533
20.922958 318.433745 -9.176135
448.968856 253.035647 -8.824654
-331.196405 74.059296 -32.008416
-22.660710 32.413420 -14.522876
-319.702996 209.534758 -28.171693
-179.172155 265.910071 -35.855889
-321.553577 138.621927 -26.406662
51.672125 201.748457 -7.578007
-285.638038 212.546543 -29.393546
-318.877207 218.169382 -5.539054
353.828934 65.179906 -11.086496
49.953838 281.608663 -32.730607
541.850659 95.086881 -20.504049
-261.158204 211.305102 -22.497283
185.059785 210.320114 -11.031252
-72.969646 55.971587 -6.782623
57.796480 214.663552 -10.754321
256.724080 295.601568 -17.340156
308.496400 77.179268 -23.089510
49.615689 173.805354 -10.824708
-58.527513 30.979440 -7.847512
51.741837 179.578452 -12.753813
-502.067511 193.286160 -17.436588
124.112987 228.696263 -24.432597
265.261132 237.274619 -15.125812
483.616874 212.687115 -19.648710
96.349013 288.816921 -24.364221
-310.644599 63.733708 -11.402287
87.125502 269.385106 -29.957023
-475.872922 212.086636 -37.780373
353.459745 64.864683 -19.752325
-176.387907 176.092243 -10.632907
189.140699 170.442927 -19.180956
-177.141955 238.746717 -34.327226
-13.109838 110.922300 -8.010819
-227.799172 356.561344 -34.958651
-7.759345 203.868755 -26.171488
-390.254207 180.074393 -5.322203
466.603409 226.852416 -9.857540
-421.352560 98.068165 -26.446796
-225.376171 89.552649 -23.854244
-217.311360 355.496419 -35.984840
239.065748 242.254880 -26.975720
0.957272 121.148605 -8.382025
54.024991 230.842054 -8.048466
330.333281 40.908536 -16.114175
278.517039 211.757157 -10.223877
546.388539 94.795202 -18.881231
-124.716830 175.196895 -7.681704
17.498097 180.984645 -31.261490
-49.287840 34.652030 -13.103951
-445.486041 295.283841 -13.154470
479.601707 93.757234 -21.415933
-116.115907 33.547832 -33.159268
288.078425 198.574704 -17.330275
-230.738136 306.786578 -11.587779
-294.530551 213.382496 -11.208874
478.872036 93.565541 -21.739107
-33.477384 275.700130 -30.462017
-173.133350 54.982709 -35.830469
9.422945 306.468234 -7.039778
457.458796 227.114625 -16.609584
-59.379915 187.230762 -9.402264
-9.253672 222.596354 -29.569238
332.306497 76.543499 -27.889898
-116.597873 244.004669 -5.968716
260.984617 169.350404 -13.959525
393.425419 253.234956 -4.770886
-100.664395 178.377265 -28.312540
-32.874103 31.537061 -10.582011
502.833241 210.112063 -15.096859
-209.958660 124.123359 -23.595201
-502.112129 193.930870 -18.117836
-239.827397 222.355050 -36.237253
194.184360 185.453967 -10.799447
304.089780 183.921118 -24.678963
330.294412 297.893218 -17.555897
-224.861128 169.195221 -35.425573
306.938873 80.550585 -20.094545
-250.733600 304.900686 -31.757493
516.200944 251.522387 -11.766916
311.372270 73.508875 -24.556273
-330.383046 184.591714 -22.339563
174.405387 182.887128 -31.264356
87.050104 199.743834 -9.309681
14.154123 144.598855 -9.269353
305.734398 297.816566 -21.874858
-185.785084 238.584185 -37.048616
-187.622222 251.198305 -3.047601
49.287048 172.048712 -11.422712
59.432329 202.084867 -32.797867
-153.546965 180.141445 -26.946797
-209.601810 238.790902 -36.866740
141.440884 195.609431 -31.832412
-146.412394 156.462026 -6.332171
306.217142 160.094218 -18.752179
320.327157 49.180782 -15.565689
-92.733062 169.730345 -7.421600
-344.966913 77.314155 -32.103220
63.299393 275.817977 -31.415425
262.747693 210.204014 -12.434140
-167.585295 224.665730 -35.411658
-351.327120 216.991644 -5.709809
23.068684 118.358739 -14.457141
-27.637941 66.431923 -7.359192
472.065991 84.634133 -9.669319
-182.113756 248.565423 -35.058770
237.733268 181.493076 -11.618732
-219.522227 323.338778 -37.663056
-5.193296 298.563817 -6.795765
-235.231374 347.384330 -35.883886
-103.962553 16.907710 -8.555200
106.815373 228.188845 -24.120307
19.156956 146.316348 -9.422968
-160.545825 161.611184 -3.756720
47.850179 286.885599 -32.567541
291.695469 216.748952 -10.212849
-367.829626 212.594232 -19.399916
-245.738319 340.518725 -37.375353
218.209231 186.113077 -9.088636
-229.758598 168.858667 -3.167223
264.586312 263.834520 -27.350317
10.285912 321.862224 -30.400728
457.013758 250.355620 -17.079595
-295.606031 212.678080 -29.677429
17.506081 318.721532 -30.228293
-291.774652 181.538463 -29.530706
19.118928 226.127118 -9.842972
225.454040 259.124411 -25.484212
170.915500 214.783213 -21.485878
-22.364706 361.266903 -27.422698
-58.486066 21.182884 -29.716566
-181.977998 39.227886 -13.041771
244.781946 164.451785 -14.915331
-231.129016 125.375026 -9.616652
22.530637 155.784141 -9.530966
-231.462858 303.854559 -10.130993
502.446059 206.253632 -17.585961
</DataArray>
</Points>
<PointData>
<DataArray NumberOfComponents='1' type='Int32' Name='ParticleType' format='ascii'>
1
1
1
1
1
1
1
1
1
1
1
1
1
1
1
1
1
1
1
1
1
1
1
1
1
1
1
1
1
1
1
1
1
1
1
1
1
1
1
1
1
1
1
1
1
1
1
1
1
1
1
1
1
1
1
1
1
1
1
1
1
1
1
1
1
1
1
1
1
1
1
1
1
1
1
1
1
1
1
1
1
1
1
1
1
1
1
1
1
1
1
1
1
1
1
1
1
1
1
1
1
1
1
1
1
1
1
1
1
1
1
1
1
1
1
1
1
1
1
1
1
1
1
1
1
1
1
1
1
1
1
1
1
1
1
1
1
1
1
1
1
1
1
1
1
1
1
1
1
1
1
1
1
1
1
1
1
1
1
1
1
1
1
1
1
1
1
1
1
1
1
1
1
1
1
1
1
1
1
1
1
1
1
1
1
1
1
1
1
1
1
1
1
1
1
1
1
1
1
1
1
1
1
1
1
1
1
1
1
1
1
1
1
1
1
1
1
1
1
1
1
1
1
1
1
1
1
1
1
1
1
1
1
1
1
1
1
1
1
1
1
1
1
1
1
1
1
1
1
1
1
1
1
1
1
1
1
1
1
1
1
1
1
1
1
1
1
1
1
1
1
1
1
1
1
1
1
1
1
1
1
1
1
1
1
1
1
1
1
1
1
1
1
1
1
1
1
1
1
1
1
1
1
1
1
1
1
1
1
1
1
1
1
1
1
1
1
1
1
1
1
1
1
1
1
1
1
1
1
1
1
1
1
1
1
1
1
1
1
1
1
1
1
1
1
1
1
1
1
1
1
1
1
1
1
1
1
1
1
1
1
1
1
1
1
1
1
1
1
1
1
1
1
1
1
1
1
1
1
1
1
1
1
1
1
1
1
1
1
1
1
1
1
1
1
1
1
1
1
1
1
1
1
1
1
1
1
1
1
1
1
1
1
1
1
1
1
1
1
1
1
1
1
1
1
1
1
1
1
1
1
1
1
1
1
1
1
1
1
1
1
1
1
1
1
1
1
1
1
1
1
1
1
1
1
1
1
1
1
1
1
1
1
1
1
1
1
1
1
1
1
1
1
1
1
1
1
1
1
1
1
1
1
1
1
1
1
1
1
1
1
1
1
1
1
1
1
1
1
1
</DataArray>
<DataArray NumberOfComponents='1' type='Int32' Name='ParticleID' format='ascii'>
0
1
2
3
4
5
6
7
8
9
10
11
12
13
14
15
16
17
18
19
20
21
22
23
24
25
26
27
28
29
30
31
32
33
34
35
36
37
38
39
40
41
42
43
44
45
46
47
48
49
50
51
52
53
54
55
56
57
58
59
60
61
62
63
64
65
66
67
68
69
70
71
72
73
74
75
76
77
78
79
80
81
82
83
84
85
86
87
88
89
90
91
92
93
94
95
96
97
98
99
100
101
102
103
104
105
106
107
108
109
110
111
112
113
114
115
116
117
118
119
120
121
122
123
124
125
126
127
128
129
130
131
132
133
134
135
136
137
138
139
140
141
142
143
144
145
146
147
148
149
150
151
152
153
154
155
156
157
158
159
160
161
162
163
164
165
166
167
168
169
170
171
172
173
174
175
176
177
178
179
180
181
182
183
184
185
186
187
188
189
190
191
192
193
194
195
196
197
198
199
200
201
202
203
204
205
206
207
208
209
210
211
212
213
214
215
216
217
218
219
220
221
222
223
224
225
226
227
228
229
230
231
232
233
234
235
236
237
238
239
240
241
242
243
244
245
246
247
248
249
250
251
252
253
254
255
256
257
258
259
260
261
262
263
264
265
266
267
268
269
270
271
272
273
274
275
276
277
278
279
280
281
282
283
284
285
286
287
288
289
290
291
292
293
294
295
296
297
298
299
300
301
302
303
304
305
306
307
308
309
310
311
312
313
314
315
316
317
318
319
320
321
322
323
324
325
326
327
328
329
330
331
332
333
334
335
336
337
338
339
340
341
342
343
344
345
346
347
348
349
350
351
352
353
354
355
356
357
358
359
360
361
362
363
364
365
366
367
368
369
370
371
372
373
374
375
376
377
378
379
380
381
382
383
384
385
386
387
388
389
390
391
392
393
394
395
396
397
398
399
400
401
402
403
404
405
406
407
408
409
410
411
412
413
414
415
416
417
418
419
420
421
422
423
424
425
426
427
428
429
430
431
432
433
434
435
436
437
438
439
440
441
442
443
444
445
446
447
448
449
450
451
452
453
454
455
456
457
458
459
460
461
462
463
464
465
466
467
468
469
470
471
472
473
474
475
476
477
478
479
480
481
482
483
484
485
486
487
488
489
490
491
492
493
494
495
496
497
498
499
</DataArray>
<DataArray NumberOfComponents='1' type='Int8' Name='IsActive' format='ascii'>
1
1
1
1
1
1
1
1
1
1
1
1
1
1
1
1
1
1
1
1
1
1
1
1
1
1
1
1
1
1
1
1
1
1
1
1
1
1
1
1
1
1
1
1
1
1
1
1
1
1
1
1
1
1
1
1
1
1
1
1
1
1
1
1
1
1
1
1
1
1
1
1
1
1
1
1
1
1
1
1
1
1
1
1
1
1
1
1
1
1
1
1
1
1
1
1
1
1
1
1
1
1
1
1
1
1
1
1
1
1
1
1
1
1
1
1
1
1
1
1
1
1
1
1
1
1
1
1
1
1
1
1
1
1
1
1
1
1
1
1
1
1
1
1
1
1
1
1
1
1
1
1
1
1
1
1
1
1
1
1
1
1
1
1
1
1
1
1
1
1
1
1
1
1
1
1
1
1
1
1
1
1
1
1
1
1
1
1
1
1
1
1
1
1
1
1
1
1
1
1
1
1
1
1
1
1
1
1
1
1
1
1
1
1
1
1
1
1
1
1
1
1
1
1
1
1
1
1
1
1
1
1
1
1
1
1
1
1
1
1
1
1
1
1
1
1
1
1
1
1
1
1
1
1
1
1
1
1
1
1
1
1
1
1
1
1
1
1
1
1
1
1
1
1
1
1
1
1
1
1
1
1
1
1
1
1
1
1
1
1
1
1
1
1
1
1
1
1
1
1
1
1
1
0
1
1
1
1
1
1
1
1
1
1
1
1
1
1
1
1
1
1
1
1
1
1
1
1
1
1
1
1
1
1
1
1
1
1
1
1
1
1
1
1
1
1
1
1
1
1
1
1
1
1
1
1
1
1
1
1
1
1
1
1
1
1
1
1
1
1
1
1
1
1
1
1
1
1
1
1
1
1
1
1
1
1
1
1
1
1
1
1
1
1
1
1
1
1
1
1
1
1
1
1
1
1
1
1
1
1
1
1
1
1
1
1
1
1
1
1
1
1
1
1
1
1
1
1
1
1
1
1
1
1
1
1
1
1
1
1
1
1
1
1
1
1
1
1
1
1
1
1
1
1
1
1
1
1
1
1
1
1
1
1
1
1
1
1
1
1
1
1
1
1
1
1
1
1
1
1
1
1
1
1
1
1
1
1
1
1
1
1
1
1
1
1
1
1
1
1
</DataArray>
<DataArray NumberOfComponents='1' type='Int32' Name='ParticleTetID' format='ascii'>
10406
43857
12025
6449
83680
5078
42114
19571
1658
8461
27320
7646
7453
8894
30729
32336
32891
92383
5725
33057
56902
1171
55126
11582
28051
52892
7427
51431
2338
4791
52044
3258
26393
32639
9889
34456
32158
86144
26672
40891
16529
18361
18377
1219
52045
11950
9017
51681
29747
25187
29814
17713
53054
8963
19208
35049
4916
10850
32337
32352
8115
29814
16005
25959
38695
13480
18572
32335
31090
94708
1374
16162
38639
33887
270
4297
31298
30092
54239
35108
6841
53033
37848
45657
83379
3331
45634
147822
24489
159324
3005
28053
54761
27319
26471
15644
7416
17015
29929
32981
32395
9814
7193
3808
2006
30082
7283
79135
2006
97870
25588
2273
15336
22347
34473
30235
25498
27274
12025
7518
15929
15825
29742
37448
25185
231
6884
30405
29404
19975
6554
11935
32316
95637
5898
25052
14439
52188
19612
16256
37413
27606
35059
52115
52654
32116
22097
30208
34466
35023
37210
30605
70494
34081
31762
3588
22740
16159
9540
7436
32638
10120
29818
8992
381
32638
45761
48214
27510
15468
4129
15728
64717
11649
27494
25961
10690
50319
32638
66356
49781
29929
42825
25602
11190
39088
33528
9853
13165
5726
7192
41160
67216
36930
2324
46110
71846
31688
45258
19975
52657
31782
1437
26239
3549
79136
13898
20974
31831
3798
52279
64753
29816
29457
5719
56853
25046
31298
30928
9717
39927
7250
17747
48629
66352
1159
35384
9467
22097
20289
36752
848
16217
32156
11184
9741
33418
7465
9476
40089
9015
25887
5900
38290
52657
7448
41162
40166
17931
8889
31287
66409
40147
37377
29725
7272
17381
10130
6641
1083
25495
272
30195
52044
39158
33164
4282
19217
32450
6320
34336
2213
52153
7295
53162
13456
32880
71198
32321
34644
34336
33887
14180
29745
5891
6819
40890
9253
30126
6386
29919
51862
70404
2270
557
42655
30194
6817
32303
11414
10768
712
14133
-126563
6249
31333
28881
8035
8511
47660
25051
3454
7986
25585
39914
5276
35024
20918
33887
27978
35096
34546
30271
13109
9321
66409
2774
24241
80144
39190
9434
7238
3110
34268
3004
40584
9482
28777
5941
52659
31720
11120
40882
20516
13911
32304
12006
6452
5916
5907
55139
14179
3945
7314
10999
15436
2757
29671
29919
27823
52293
30194
41637
83598
8366
3408
7466
10725
6760
32385
9535
10765
32423
29875
79137
7553
45742
15843
35015
27565
25587
40881
13197
33592
2276
89718
31722
52046
37378
7637
30614
12562
32425
7385
35197
305
14171
11283
5896
16022
52185
4600
6599
9863
25338
30857
30261
31832
31289
76418
13037
30973
15394
12028
53165
11173
27476
6665
7439
53165
23126
2445
29073
53034
18275
5916
42115
10604
44682
127228
15672
18545
66409
6797
2276
9557
25043
50411
30320
4283
45657
6746
66353
25588
11873
35293
26229
30423
32319
287
1946
40882
35023
7320
2555
40838
11485
48697
33164
20757
12236
29929
28102
9483
12872
48390
17463
52061
285
26481
1870
11469
9267
11201
27605
48946
9072
26564
25187
2365
2969
38291
4268
32556
42979
53414
7448
45642
7358
26661
38441
90224
20516
13208
2704
37464
6917
36651
6665
64826
</DataArray>
<DataArray NumberOfComponents='3' type='Float32' Name='vels' format='ascii'>
1.074560 0.038229 -0.000293
3.627991 -5.827362 0.028373
0.171463 0.049808 0.003982
0.031397 0.005104 -0.001000
18.914005 1.360333 -1.106946
1.730260 -0.230105 0.008853
3.003525 -4.241584 0.054131
1.186311 -0.010977 0.003273
0.208754 0.007189 0.000434
0.565957 0.082824 -0.001115
2.612402 1.311819 0.001214
0.090849 -0.026522 0.001522
0.321209 0.002813 0.000373
0.267210 -0.034017 -0.000101
1.598699 -0.211059 0.000048
1.430097 0.580741 -0.001166
4.529580 0.508975 0.000556
6.544170 4.294964 -0.089561
0.155239 0.026241 -0.002035
0.397621 -2.808655 -0.038766
1.728627 1.135094 0.001108
0.695044 -0.139932 -0.000207
3.073485 0.153368 -0.990981
0.732447 -0.713239 0.000104
1.482041 0.447289 0.000880
2.345793 -1.028434 -0.162917
1.471130 0.018702 0.003342
1.516865 1.305112 -0.028059
0.711966 0.149057 0.000362
0.993100 -0.888370 -0.001063
1.114560 -0.800250 -0.008180
0.783098 -0.059410 0.000072
1.431783 -0.403893 -0.001799
1.811038 0.767116 -0.003880
0.388458 0.115159 -0.001730
8.483804 -4.032328 -0.024030
3.535619 -1.967064 1.101520
7.471790 -0.929387 6.027036
2.323645 0.015064 -0.000967
1.844885 1.572597 0.008253
0.897810 0.910233 -0.000293
1.224122 -0.093000 -0.000449
0.900896 -0.072476 0.000241
1.186843 0.162027 0.003754
1.175987 -0.720122 0.003202
0.024485 -0.005696 0.000003
0.502973 -0.110785 0.000046
1.211091 -0.774319 -0.016357
1.422656 1.412637 0.000398
2.329688 0.216681 -0.000119
1.557691 1.220410 -0.000127
0.697270 0.061604 -0.000183
2.383567 1.282896 -0.520001
0.271761 0.058172 -0.000543
0.015889 -0.014333 0.003700
1.846815 0.510016 0.000381
0.013564 0.002710 -0.000313
0.000827 0.000035 0.001820
1.606084 0.660816 -0.001421
1.075363 1.355839 0.000269
1.178225 -0.147756 -0.001975
1.808219 1.124429 -0.000975
0.815865 -0.427553 -0.000323
1.721538 -0.218968 -0.000231
7.094471 -0.810968 0.005857
0.753631 0.089594 0.000003
1.024355 0.736748 0.002230
1.357015 0.764484 -0.000867
1.145097 1.282606 -0.000662
0.311836 -8.573081 -0.209051
1.241895 0.883312 -0.000487
0.024656 0.001678 0.000036
1.460033 -0.287030 0.000135
1.595599 0.595753 -0.000993
0.819776 0.054129 0.000176
1.741191 0.073338 -0.000138
3.074033 0.741384 -0.000249
1.606878 0.805489 -0.002586
1.220733 -0.835309 -0.045038
1.251882 0.845232 0.006309
0.015508 -0.002580 -0.001811
2.736964 -1.313188 -1.042348
8.065875 -0.162243 -0.009281
0.227537 -7.967319 -0.123519
14.456369 -1.885451 -6.276804
1.469485 -0.137218 0.000018
2.146296 -0.892203 0.000643
30.168615 2.365831 0.020920
5.292137 1.153799 0.056585
34.546000 2.409659 -0.172796
0.583798 0.037649 0.000277
1.558429 0.431221 0.000322
0.021017 -0.019015 -0.003069
1.891573 1.049791 0.001110
1.627953 -9.249065 -0.019846
0.572300 0.031680 0.000161
0.690598 0.024542 0.000435
1.243443 0.061056 0.002894
1.805656 -0.848102 0.000489
1.552035 1.422703 -0.001026
4.005647 0.748385 0.001948
1.625603 0.455326 -0.000904
0.167641 0.027650 0.001024
0.005043 -0.000039 -0.000417
-0.006079 -0.001146 -0.006847
2.136933 1.331138 0.002301
0.568096 -0.001457 0.002093
1.404156 1.061764 0.000064
-0.007491 -0.001051 -0.004732
5.534215 -1.293459 -0.096474
0.794468 -5.151236 -0.047384
0.001302 -0.000186 0.001079
0.888454 0.210194 0.000505
1.125265 0.931375 0.006460
1.868335 -0.267046 0.000479
2.775799 -1.787808 -0.005210
0.014890 -0.169826 -0.028179
2.440689 3.700343 -0.091963
0.328166 0.097096 0.004914
0.979001 0.006386 -0.002199
0.665830 -0.175199 0.000188
1.613126 0.722084 -0.001128
1.241566 1.177270 0.000689
4.494337 1.218624 0.268096
1.758853 0.572023 -0.002250
0.771465 0.193091 -0.001380
0.127886 -0.020696 0.000278
1.778600 0.557757 0.001556
2.951400 -0.962205 -0.001184
1.018650 1.153831 -0.000411
0.502258 -0.085133 -0.001669
1.082312 -0.003962 -0.005179
1.581430 0.665827 -0.000574
3.614474 -6.848965 -0.229607
2.099885 0.580369 -0.001373
7.764189 0.122395 -0.007031
1.031042 0.689012 -0.003230
2.826834 -1.284447 -0.780634
1.339127 -1.424358 -0.003588
0.020581 0.000156 0.002523
1.130582 0.267860 0.000757
4.644548 -3.681356 0.006492
1.730989 0.584756 -0.000211
1.062036 1.430661 -0.000689
2.566889 -0.145853 -0.086868
1.502516 -1.225154 0.003628
0.464386 0.890743 -0.001527
2.596850 1.118901 -0.005549
6.100335 -3.099804 -0.008832
3.632375 0.278331 -0.002678
2.792697 2.123091 0.010528
1.340957 -1.318889 0.000546
0.743227 1.270548 -0.002711
2.443735 0.846165 -0.004808
1.744965 -1.982469 0.003206
0.017441 0.005150 0.000178
0.582289 0.941435 0.001454
1.518396 -0.018539 0.014395
0.599103 0.013976 -0.000877
0.129858 0.000748 -0.001186
1.798005 0.838088 -0.002468
0.058601 0.017323 -0.000776
1.671558 1.256751 0.000158
2.211786 0.410590 0.002157
1.232141 -0.224025 -0.000524
1.776529 0.838133 -0.003446
8.828617 -0.738870 -0.117292
0.242419 -1.020505 -0.032807
1.068219 1.384505 -0.000974
1.158751 0.293449 0.000641
0.314702 0.093418 0.002220
0.726466 0.796754 0.001296
2.165571 0.261728 0.008806
1.386165 0.049207 -0.001182
8.419390 -2.652032 -0.015140
1.784794 0.197329 0.006045
-0.001776 0.001191 0.000130
1.083458 -0.924774 -0.002212
1.920927 0.882632 -0.002383
2.043412 0.210069 0.006826
1.149645 0.588151 0.057926
1.632014 -0.893399 0.000025
2.208736 0.596140 0.000036
1.482498 -2.213787 0.020679
1.559039 -0.148391 0.000675
1.073173 1.860357 -0.003305
3.581832 4.329944 -0.029952
2.409657 0.644117 -0.001370
0.026420 -0.000007 -0.000787
0.019084 0.002972 -0.001084
1.062959 0.180973 0.003254
7.419358 -3.645274 -0.022348
1.895837 1.034641 0.001500
1.515199 0.792572 -0.002258
0.317912 0.070375 -0.000185
2.666882 -10.232811 -0.022611
1.385054 1.202081 0.000511
0.993698 1.819011 -0.006736
4.039036 -11.052321 0.075126
1.024780 1.135405 -0.000757
2.496528 -0.096221 -0.021289
9.354932 0.580028 0.021251
1.002562 0.246836 0.000460
5.195207 -1.800487 -0.002290
0.601416 0.735855 0.000702
1.310213 1.080479 0.001699
1.121656 -0.216351 -0.000325
1.624527 -1.076765 -0.005154
2.432345 -2.684795 0.022749
0.354435 0.001592 0.000341
0.795908 -0.597467 0.003218
1.458063 -0.908467 -0.015793
1.519050 0.914287 -0.000328
1.090456 1.132420 0.000046
0.762467 0.940240 0.000711
1.924141 0.926916 0.000689
9.637150 -0.397036 -0.016475
2.833883 0.737955 -0.000782
1.352203 -6.830032 0.025603