<VTKFile type='UnstructuredGrid' version='1.0' byte_order='LittleEndian' header_type='UInt64'>
<UnstructuredGrid>
<Piece NumberOfCells='500' NumberOfPoints='500'>
<Points>
<DataArray NumberOfComponents='3' type='Float32' Name='Position' format='ascii'>
619.371234 181.638964 -4.629444
1029.059357 188.209033 -16.808274
-117.926467 381.187316 -6.326002
748.865202 248.577232 -6.414890
1029.278797 232.304881 -20.074967
-107.519217 109.381345 -2.343787
1029.253611 152.748402 -21.930599
1028.999307 227.831264 -4.645276
602.605919 185.204151 -3.942040
220.426721 208.876210 -5.129755
1029.136333 154.676584 -29.201451
89.614924 177.567243 -26.569117
127.744319 196.828157 -6.258566
665.252230 126.332573 -4.397209
621.580753 216.919403 -4.408809
1029.359902 252.147987 -15.006536
1029.119520 187.784713 -4.743284
1029.087137 262.783777 -11.868301
153.798379 201.518830 -7.552990
1029.193912 138.980634 -19.474711
1029.180406 166.324271 -12.000646
648.949524 43.443979 -4.632206
1029.076102 228.539705 -26.569211
460.842861 396.355800 -3.681459
1029.103216 249.678682 -17.080837
1028.990499 208.533237 -16.447437
1029.196326 188.604010 -17.100767
1029.136178 186.426719 -8.694585
223.167347 221.138737 -37.552362
1029.023483 265.307023 -7.267714
664.514985 215.307708 -12.103252
440.534590 55.647648 -1.898242
1029.231420 262.000992 -8.732897
1029.083701 205.611464 -10.271489
422.306524 386.274159 -3.543799
1028.995048 200.728172 -8.454059
1029.074164 155.183680 -27.112406
1029.321351 153.281068 -16.377951
554.905435 177.078186 -31.459909
1028.982668 142.206514 -26.628187
1028.977491 138.452308 -6.168599
682.607424 129.235436 -2.682003
463.211101 37.115388 -36.094277
1029.147816 142.387907 -29.713177
846.419374 212.695429 -17.711160
-204.575859 219.811245 -37.596828
289.398851 145.581325 -35.160815
997.856881 211.005885 -8.998081
1029.339088 256.934836 -22.392138
732.254820 189.728247 -6.829821
1029.096555 251.048780 -9.627166
956.456412 239.338565 -5.634497
1029.044092 190.888146 -17.070591
321.843202 308.975417 -37.310059
-491.986322 186.835442 -2.163968
1029.140656 185.673421 -7.749712
571.913817 337.299532 -4.559036
-148.235339 181.184457 -30.941503
1029.281029 251.617953 -16.541149
722.805021 35.783142 -11.698725
625.551375 69.645488 -29.171075
1029.144067 251.298274 -9.433218
867.932507 320.438683 -8.257170
1015.793680 197.496932 -11.140459
1029.099325 207.296483 -29.207397
322.453843 260.024314 -37.581820
639.068143 158.127967 -36.507259
1029.003818 260.121252 -19.353480
1029.219105 141.565174 -7.227381
1029.030335 140.847806 -10.327024
1029.210581 151.177371 -10.058554
-123.774855 180.722668 -34.655678
422.743582 386.163063 -3.664093
1029.370072 249.889205 -17.917543
612.136657 223.063587 -3.697207
585.000967 213.989903 -31.097354
992.324396 213.624174 -29.361884
1029.088630 226.583231 -26.791639
688.698249 192.141235 -7.882036
680.538940 182.362203 -13.188947
829.094721 100.266453 -6.068466
1029.075219 199.084609 -13.594524
1029.306689 250.607125 -21.757990
1029.275264 140.263570 -17.033113
1029.110714 228.986199 -22.802082
683.510089 129.914083 -4.109469
1029.118126 264.933374 -10.231840
1029.150350 191.275146 -16.086105
1029.304192 140.303527 -20.675616
1029.296586 152.742705 -21.728450
493.575769 209.126300 -33.438869
1029.317875 251.504023 -16.457303
1029.142010 196.584875 -14.344229
1029.292726 155.217574 -29.018318
1029.213633 188.409014 -16.858498
516.510786 206.184991 -1.829689
360.701811 72.078480 -0.522336
1029.083866 230.763947 -4.547148
1029.337316 249.376128 -23.538960
1029.006290 140.497051 -6.606818
1029.101994 154.322595 -29.456101
218.015482 279.837670 -12.045173
1029.023898 231.951962 -20.916878
-432.235525 176.871512 -26.668139
-358.726580 250.335413 -20.017147
1029.244989 230.300666 -9.687840
1029.187334 191.618517 -20.456878
1029.318341 165.992030 -17.959244
-265.081112 264.830708 -19.945913
1028.977543 140.299234 -17.001177
1029.189046 140.141349 -19.420439
-501.464497 192.545226 -9.352474
343.953692 345.979069 -3.388783
1029.088515 191.145182 -20.070877
1029.119364 214.611647 -7.296110
1029.162892 231.219450 -28.952026
439.582492 74.142632 -20.877312
1029.069190 250.884586 -9.429735
-129.243841 384.104815 -5.712383
1029.161448 191.361488 -22.229912
230.972156 153.584092 -35.857045
1029.017562 182.407524 -4.431521
1029.203531 259.133438 -14.979347
1029.386622 140.349597 -17.517165
823.098087 212.685268 -8.839563
122.303903 222.313934 -33.680684
377.639320 41.467018 -2.348081
709.581309 212.656224 -7.065051
1029.257480 229.715106 -21.899225
1029.221177 141.549552 -28.168380
501.662179 48.120069 -5.065096
-164.455225 214.693550 -5.558297
1029.184340 250.622315 -9.354484
1029.115912 138.104862 -11.754595
1029.020587 188.147850 -23.823336
1029.259073 166.069571 -28.080659
1029.121508 190.466885 -8.136797
1029.124786 206.293152 -17.948811
422.237684 386.356569 -3.913509
-160.537910 213.586333 -4.077571
1028.976683 198.275371 -20.143932
1029.216848 231.067388 -27.441933
746.726515 164.018082 -36.416221
1029.134359 189.002731 -8.993922
1028.982673 228.031097 -11.093356
946.199512 281.881521 -6.711114
803.174162 59.707322 -20.351938
1029.064718 230.128527 -9.890916
1029.261154 171.158954 -29.184869
381.472231 52.266270 -10.001146
1029.152980 136.636137 -10.985803
1028.980528 254.689233 -4.344013
1029.072949 189.720784 -13.672791
1029.126679 229.823613 -11.368067
1029.116635 266.379400 -22.171789
697.437162 350.985431 -11.761805
1029.194718 140.926378 -10.790143
-41.049239 205.216978 -31.286107
497.144961 128.946564 -2.511774
516.956291 188.605053 -5.547822
874.702459 218.741247 -12.390715
614.243525 372.482800 -12.024725
1029.165082 249.277036 -18.436584
1029.236544 229.448986 -17.039859
588.179297 108.936522 -1.814082
1029.046234 203.253687 -14.894425
1029.162656 250.509853 -9.214404
336.120707 93.961644 -26.598871
534.938699 4.061908 -13.336076
661.039732 22.557742 -12.482322
102.102187 295.736547 -18.741028
1028.993105 141.600352 -27.791848
1029.312762 229.305865 -15.668280
778.921421 222.559418 -4.260156
1029.207264 189.143456 -11.935037
1029.079315 195.523317 -11.910939
-521.946709 274.732294 -37.098367
1029.232534 189.628657 -19.390733
934.230990 189.154743 -9.402121
1029.259166 229.986926 -17.220021
1029.103068 198.247599 -27.320136
1028.989402 252.799752 -25.582654
1029.160703 187.417509 -7.500706
1029.086343 261.955222 -10.171866
90.186256 179.606652 -26.177353
1029.196213 265.861447 -23.563606
1029.060599 250.741090 -23.158830
1028.978047 263.287548 -11.028804
259.027781 201.122780 -20.117773
-132.877890 316.251477 -3.547869
1029.184939 230.710144 -21.207296
1029.139103 188.001014 -24.091368
1029.296602 165.116357 -11.684768
771.182512 212.663064 -28.661125
347.984003 321.407599 -2.662768
1029.246652 152.097065 -21.274371
1029.238727 166.185289 -18.220476
677.573252 22.994257 -12.433521
1029.317852 166.310171 -11.196974
1029.074538 141.753036 -28.112455
1028.978325 226.681346 -19.098767
1029.070636 229.001683 -26.946571
352.566385 317.121371 -34.846400
1029.076318 154.088305 -26.648681
966.731101 106.984567 -8.005210
1029.134247 165.425647 -17.916420
634.647013 61.155263 -4.058473
1028.993193 251.027087 -9.360745
1029.191202 138.906774 -12.100933
-100.351860 179.425198 -2.760204
790.843373 212.671420 -15.948524
1028.987540 207.207378 -15.083185
1029.256612 249.121303 -18.632310
1029.083419 261.565138 -18.628778
1029.186294 141.644426 -26.875536
1029.125480 163.915666 -20.865933
1029.067550 187.903334 -11.437351
780.158774 212.668376 -28.398868
1028.977323 191.701105 -10.560304
53.969819 151.838011 -34.604033
1029.130325 227.908705 -11.363294
1029.161652 187.907923 -23.740786
326.220206 40.770504 -33.814706
1028.994581 191.539402 -20.807746
1029.089074 228.582486 -11.134421
1029.032689 139.337093 -11.491075
849.725131 181.591080 -26.558101
372.620258 58.008078 -18.904551
869.620748 78.177026 -20.352160
1029.118109 188.779216 -7.828990
1029.058995 154.448558 -27.720059
431.909000 254.555876 0.000849
507.801137 213.313359 -35.602252
1029.130825 162.909080 -15.085360
1029.287445 139.578995 -9.591735
518.762369 386.949869 -5.679549
1029.138655 191.579951 -20.417899
703.763661 220.289042 -25.893667
694.044743 180.850693 -19.932592
1029.215009 263.230013 -9.648705
954.507398 127.233052 -28.457091
1029.034368 200.459019 -7.800582
1029.114565 185.116480 -26.917102
1029.027159 188.449629 -8.741109
1029.088616 227.990706 -18.525192
1028.995233 188.013687 -23.848952
756.211132 192.057603 -30.121269
1028.976192 263.358560 -7.415076
1028.983311 138.661981 -6.366192
311.168993 98.991567 -34.243257
1029.056723 204.324582 -9.094241
1028.993735 205.652109 -16.980837
1029.000713 266.680231 -14.841078
1029.019230 264.554280 -17.341043
1029.020443 260.195748 -17.082613
626.698038 166.642555 -6.051082
1029.136234 190.187559 -24.030354
16.228409 332.982742 -30.828778
55.067567 264.745927 -36.910296
644.905062 184.533634 -5.737644
316.718194 181.305977 -17.743600
625.424936 223.904356 -3.885872
1028.992364 140.724015 -18.226469
1029.094447 201.959905 -15.364515
1029.288175 250.532170 -11.240318
1028.982169 140.578835 -8.523235
353.830466 66.842976 -36.174514
-499.140926 188.915956 -25.189538
1028.991480 184.793799 -26.995024
-32.660126 282.703992 -4.317716
1029.263509 251.378450 -21.648380
-405.885026 125.929808 -36.009595
1029.055936 181.494904 -18.997324
311.337533 150.433165 -10.511823
1029.168282 189.604127 -16.148881
356.130326 74.971692 -24.189130
1029.060040 188.469406 -26.483053
1029.156936 166.796368 -19.504463
1029.062033 251.332961 -17.754174
915.519650 219.037898 -19.658739
1029.058731 251.612451 -21.507725
1029.209896 251.530546 -18.765869
1029.226357 141.141672 -26.962504
1029.035831 258.818714 -21.723534
1029.137454 191.840832 -7.148699
315.102273 55.498418 -33.739754
1028.992617 143.275617 -33.765066
326.543548 358.487519 -4.009127
1029.052570 231.238678 -23.593649
1028.981230 228.890302 -26.848342
907.809753 283.093584 -6.120366
1029.019086 186.784368 -8.920433
1029.062089 229.606706 -11.842059
-493.212976 185.949161 -4.144779
299.304207 54.870400 -34.098583
953.467982 187.878184 -29.893572
1029.055737 139.105929 -11.640209
629.794041 77.836608 -32.475374
1029.084872 192.212440 -20.238293
-195.753925 212.657212 -5.130634
502.261720 194.031475 -12.704110
1028.996143 151.715862 -17.273462
1028.994285 231.174448 -6.028807
411.591621 245.039275 -3.410562
593.873575 214.694026 -4.651449
1029.256785 153.702561 -22.613375
1029.274629 189.295571 -19.419725
1028.980026 266.824802 -15.162600
530.985024 38.437452 -28.043836
1029.096721 252.600993 -23.946544
1029.235200 153.879772 -27.568629
-230.697443 213.193547 -36.287046
969.157385 279.083945 -23.149994
1029.273908 151.732683 -17.452964
1029.014351 139.407205 -11.818104
-83.991417 215.595364 -4.362227
1028.984348 184.826144 -32.941579
686.179402 131.263429 -3.444668
1028.980649 249.835231 -21.175183
873.516756 189.450634 -11.131101
1029.188393 230.634547 -28.444128
1029.080799 230.197874 -9.454699
700.762316 214.240978 -30.840948
884.590400 313.497945 -7.306803
881.339653 160.534988 -29.101025
1029.008500 206.564596 -15.792315
613.397669 151.098182 -2.296992
1029.067852 141.603446 -27.818469
1029.069269 165.176413 -18.524279
1029.133526 191.427176 -10.540003
474.615425 93.752616 -2.545866
226.879335 192.422434 -5.553015
666.480352 19.646340 -25.667975
1029.220334 140.786220 -22.054353
371.968606 252.103863 -35.709921
1029.175277 141.288491 -25.554240
486.410639 124.377066 -31.289267
1028.983994 232.598256 -35.049830
672.511677 127.023863 -4.710969
1029.228811 229.056026 -21.423484
1029.263211 229.727649 -8.828450
476.022036 213.500190 -29.570129
1029.255636 140.847097 -10.347196
1029.144526 262.952322 -22.063480
595.748419 46.794618 -32.957741
1029.093018 189.431262 -22.359625
305.043686 315.103504 -2.509478
1029.246426 229.393185 -16.587050
1029.139657 191.405911 -25.144298
1029.093379 191.825392 -10.545870
1029.146176 187.848913 -9.040993
1029.240783 141.515258 -27.379984
-201.520533 363.869784 -6.008092
1029.025452 191.423095 -15.451683
537.644924 362.206515 -5.609004
-3.203422 220.980055 -26.066832
632.830293 9.139583 -10.291748
1029.083022 262.773429 -19.497108
1029.086616 250.371744 -7.973811
1029.037398 262.781573 -26.167907
1029.137774 227.226450 -10.712844
1029.144133 141.824809 -12.094427
1028.988883 264.995240 -7.280992
1029.072346 230.843770 -24.585391
453.494967 4.970734 -26.793724
669.228046 19.961709 -11.782458
1029.022948 190.328694 -22.596931
383.699353 264.348523 -20.016068
-110.765342 106.567503 -25.963777
728.656059 134.732716 -6.002593
1028.999467 189.009184 -23.377562
50.998767 225.615131 -5.622420
1029.220458 185.847851 -11.251454
1029.284457 252.216365 -23.460776
1029.129728 164.701498 -20.667179
1029.238084 189.379812 -19.425016
726.911426 328.101349 -12.542117
1028.998408 152.824558 -6.281295
1029.029557 189.622144 -9.059488
1029.097936 262.061277 -16.866182
1029.292222 139.341657 -20.537809
1029.028994 140.404660 -8.938870
853.032105 75.173802 -6.735291
1029.005844 140.255329 -9.204981
-500.414324 192.910387 -15.142238
422.364659 386.234165 -5.736371
1029.087163 227.049554 -11.271518
751.541921 188.199868 -19.226645
922.564403 302.343127 -17.941644
22.734312 19.879798 -11.621737
1029.284670 252.620977 -25.589771
-268.505985 212.879910 -37.650759
1029.146218 191.360374 -20.366622
1029.105913 190.489401 -8.928432
1028.984297 152.167014 -15.410153
521.431281 196.431489 -34.348563
1028.977495 139.629717 -6.673073
123.547616 259.751881 -34.746801
1029.217982 189.239624 -24.197824
-121.347827 176.787696 -5.730498
805.361828 212.678350 -9.199199
-198.338294 33.964038 -26.240641
1029.331110 152.525238 -20.330589
124.743183 231.638098 -36.202256
1029.187656 251.079710 -22.841616
1029.318670 140.222168 -7.695200
529.940443 168.121623 -6.056577
1029.189180 152.203793 -9.786901
1008.697993 194.728719 -10.844247
1029.020630 165.105675 -19.151886
1029.009679 191.458190 -6.372217
1029.190473 154.549839 -27.821762
1029.119299 138.490448 -7.169665
-93.046013 388.177486 -12.612253
1028.992859 189.529076 -21.214293
1029.200837 141.506837 -28.207214
1029.122687 189.627835 -12.980992
1029.110689 230.414989 -7.779148
312.657473 143.386087 -9.975457
1029.067094 190.358882 -21.601804
1029.149717 228.931587 -26.989552
485.045901 38.586833 -35.193328
639.298227 351.528475 -6.524846
1029.126705 199.221430 -20.196635
1028.978204 191.616251 -5.973972
1029.154759 191.002642 -23.581673
1029.118563 166.532241 -28.691753
763.008930 224.606626 -4.383058
1029.114841 139.297521 -11.567960
411.558032 245.110662 -3.276845
1029.136270 191.163161 -23.318089
680.759812 23.934646 -10.684992
1029.105731 205.069380 -15.635904
1028.991614 151.329544 -19.248305
-500.546395 193.095440 -15.450888
372.505038 54.936371 -21.395293
1029.120078 187.702432 -9.310782
1029.163817 184.148452 -21.974278
1029.312471 248.234907 -9.873754
572.692942 137.665732 -33.490541
1029.328978 136.843542 -18.881703
1029.094399 248.978200 -25.149447
1029.222021 229.310936 -11.098716
1029.172426 140.413768 -21.018412
1029.112981 188.285432 -16.581198
1029.118423 167.132526 -29.081801
1029.032436 162.086172 -8.090933
1029.041121 142.217793 -6.243565
1029.236015 251.014534 -17.909152
463.249590 232.219752 -33.984954
562.875392 236.170456 -1.743315
1028.977966 139.590846 -10.513834
1029.013381 155.959542 -27.775785
681.933661 178.296469 -26.456892
377.312314 255.484724 -33.634567
1029.030631 206.195502 -29.210784
933.108762 177.473107 -6.890394
1029.122752 191.332256 -15.803695
1029.022018 152.098673 -9.721617
1028.979961 185.456998 -7.675500
211.089075 150.436840 -31.931423
1029.034602 250.235039 -24.035320
1012.994959 191.133312 -12.308569
372.583433 59.776160 -12.460715
-157.299425 219.364464 -6.223036
1029.121923 139.486113 -10.572183
1028.993989 138.911566 -6.091481
1029.016906 187.725508 -9.274138
868.809548 216.880130 -28.181021
1029.281845 164.317919 -10.568704
238.427482 241.066015 -37.740963
787.145241 305.415117 -5.948238
123.984810 229.191761 -36.104588
653.980389 15.906574 -8.784653
400.884835 273.474580 -5.355285
1029.080642 139.809185 -8.448109
617.100141 158.156186 -2.360850
1029.190996 251.339016 -24.093351
823.576133 212.679033 -8.359305
220.364632 193.671911 -19.591617
166.748076 213.929825 -37.147144
1029.091622 188.026010 -8.426024
523.707844 141.279768 -1.557306
1029.233175 246.857364 -23.058501
718.021135 357.922664 -26.133211
1029.182799 226.565878 -26.855878
1029.101006 187.965896 -24.494495
1029.001557 265.025473 -24.043119
1029.035127 184.774956 -22.472807
1029.077783 191.459570 -6.368736
1029.147602 265.728428 -24.808093
1028.979811 266.614511 -21.884949
759.840317 350.962180 -23.947548
89.895297 178.610559 -26.252768
378.075462 7.721897 -0.963226
1029.072314 141.391280 -11.738849
785.971802 97.437916 -5.262061
1029.042814 142.222528 -5.287601
850.258926 290.827058 -6.665270
1002.635936 207.160372 -17.866609
</DataArray>
</Points>
<PointData>
<DataArray NumberOfComponents='1' type='Int32' Name='ParticleType' format='ascii'>
1
1
1
1
1
1
1
1
1
1
1
1
1
1
1
1
1
1
1
1
1
1
1
1
1
1
1
1
1
1
1
1
1
1
1
1
1
1
1
1
1
1
1
1
1
1
1
1
1
1
1
1
1
1
1
1
1
1
1
1
1
1
1
1
1
1
1
1
1
1
1
1
1
1
1
1
1
1
1
1
1
1
1
1
1
1
1
1
1
1
1
1
1
1
1
1
1
1
1
1
1
1
1
1
1
1
1
1
1
1
1
1
1
1
1
1
1
1
1
1
1
1
1
1
1
1
1
1
1
1
1
1
1
1
1
1
1
1
1
1
1
1
1
1
1
1
1
1
1
1
1
1
1
1
1
1
1
1
1
1
1
1
1
1
1
1
1
1
1
1
1
1
1
1
1
1
1
1
1
1
1
1
1
1
1
1
1
1
1
1
1
1
1
1
1
1
1
1
1
1
1
1
1
1
1
1
1
1
1
1
1
1
1
1
1
1
1
1
1
1
1
1
1
1
1
1
1
1
1
1
1
1
1
1
1
1
1
1
1
1
1
1
1
1
1
1
1
1
1
1
1
1
1
1
1
1
1
1
1
1
1
1
1
1
1
1
1
1
1
1
1
1
1
1
1
1
1
1
1
1
1
1
1
1
1
1
1
1
1
1
1
1
1
1
1
1
1
1
1
1
1
1
1
1
1
1
1
1
1
1
1
1
1
1
1
1
1
1
1
1
1
1
1
1
1
1
1
1
1
1
1
1
1
1
1
1
1
1
1
1
1
1
1
1
1
1
1
1
1
1
1
1
1
1
1
1
1
1
1
1
1
1
1
1
1
1
1
1
1
1
1
1
1
1
1
1
1
1
1
1
1
1
1
1
1
1
1
1
1
1
1
1
1
1
1
1
1
1
1
1
1
1
1
1
1
1
1
1
1
1
1
1
1
1
1
1
1
1
1
1
1
1
1
1
1
1
1
1
1
1
1
1
1
1
1
1
1
1
1
1
1
1
1
1
1
1
1
1
1
1
1
1
1
1
1
1
1
1
1
1
1
1
1
1
1
1
1
1
1
1
1
1
1
1
1
1
1
1
1
1
1
1
1
1
1
1
1
1
1
1
1
1
1
1
1
1
1
1
1
1
</DataArray>
<DataArray NumberOfComponents='1' type='Int32' Name='ParticleID' format='ascii'>
0
1
2
3
4
5
6
7
8
9
10
11
12
13
14
15
16
17
18
19
20
21
22
23
24
25
26
27
28
29
30
31
32
33
34
35
36
37
38
39
40
41
42
43
44
45
46
47
48
49
50
51
52
53
54
55
56
57
58
59
60
61
62
63
64
65
66
67
68
69
70
71
72
73
74
75
76
77
78
79
80
81
82
83
84
85
86
87
88
89
90
91
92
93
94
95
96
97
98
99
100
101
102
103
104
105
106
107
108
109
110
111
112
113
114
115
116
117
118
119
120
121
122
123
124
125
126
127
128
129
130
131
132
133
134
135
136
137
138
139
140
141
142
143
144
145
146
147
148
149
150
151
152
153
154
155
156
157
158
159
160
161
162
163
164
165
166
167
168
169
170
171
172
173
174
175
176
177
178
179
180
181
182
183
184
185
186
187
188
189
190
191
192
193
194
195
196
197
198
199
200
201
202
203
204
205
206
207
208
209
210
211
212
213
214
215
216
217
218
219
220
221
222
223
224
225
226
227
228
229
230
231
232
233
234
235
236
237
238
239
240
241
242
243
244
245
246
247
248
249
250
251
252
253
254
255
256
257
258
259
260
261
262
263
264
265
266
267
268
269
270
271
272
273
274
275
276
277
278
279
280
281
282
283
284
285
286
287
288
289
290
291
292
293
294
295
296
297
298
299
300
301
302
303
304
305
306
307
308
309
310
311
312
313
314
315
316
317
318
319
320
321
322
323
324
325
326
327
328
329
330
331
332
333
334
335
336
337
338
339
340
341
342
343
344
345
346
347
348
349
350
351
352
353
354
355
356
357
358
359
360
361
362
363
364
365
366
367
368
369
370
371
372
373
374
375
376
377
378
379
380
381
382
383
384
385
386
387
388
389
390
391
392
393
394
395
396
397
398
399
400
401
402
403
404
405
406
407
408
409
410
411
412
413
414
415
416
417
418
419
420
421
422
423
424
425
426
427
428
429
430
431
432
433
434
435
436
437
438
439
440
441
442
443
444
445
446
447
448
449
450
451
452
453
454
455
456
457
458
459
460
461
462
463
464
465
466
467
468
469
470
471
472
473
474
475
476
477
478
479
480
481
482
483
484
485
486
487
488
489
490
491
492
493
494
495
496
497
498
499
</DataArray>
<DataArray NumberOfComponents='1' type='Int8' Name='IsActive' format='ascii'>
1
0
1
1
0
1
0
0
1
1
0
1
1
1
1
0
0
0
1
0
0
1
0
1
0
0
0
0
1
0
1
1
0
0
0
0
0
0
1
0
0
1
1
0
0
1
1
1
0
1
0
1
0
1
1
0
1
1
0
1
1
0
1
1
0
1
1
0
0
0
0
1
0
0
1
1
1
0
0
1
1
0
0
0
0
1
0
0
0
0
1
0
0
0
0
1
1
0
0
0
0
1
0
1
1
0
0
0
1
0
0
1
1
0
0
0
1
0
1
0
1
0
0
0
0
1
0
1
0
0
1
1
0
0
0
0
0
0
0
1
0
0
1
0
0
1
1
0
0
0
0
0
0
0
0
1
0
1
1
1
1
1
0
0
1
0
0
1
1
1
1
0
0
1
0
0
1
0
1
0
0
0
0
0
1
0
0
0
1
1
0
0
0
0
1
0
0
1
0
0
0
0
1
0
1
0
1
0
0
1
0
0
0
0
0
0
0
0
0
1
0
0
1
0
0
0
1
0
1
0
0
0
1
0
0
1
0
1
1
0
1
0
0
0
0
0
1
0
0
1
0
0
0
0
0
1
0
1
1
1
1
1
0
0
0
0
1
1
0
1
0
1
0
1
0
1
0
0
0
1
0
0
0
0
0
1
0
1
0
0
1
0
0
1
1
1
0
1
0
1
1
0
0
0
1
0
0
0
1
0
0
1
1
0
0
1
0
1
0
1
0
0
1
1
1
0
1
0
0
0
1
1
1
0
1
0
1
0
1
0
0
1
0
0
1
0
1
0
0
0
0
0
1
0
1
1
1
0
0
0
0
0
0
0
1
1
0
1
1
1
0
1
0
0
0
0
1
0
0
0
0
0
1
0
1
0
0
1
1
1
0
1
0
0
0
1
0
1
0
1
0
1
0
1
0
0
1
0
1
0
0
0
0
1
0
0
0
0
1
0
0
1
1
0
0
0
0
1
0
0
0
1
0
0
1
1
0
0
0
1
0
0
0
0
0
0
0
0
0
1
1
0
0
1
1
0
1
0
0
0
1
0
1
0
1
0
0
0
1
0
1
1
1
1
0
0
1
0
0
1
1
0
1
0
1
0
0
0
0
0
0
0
1
1
0
0
1
0
1
1
</DataArray>
<DataArray NumberOfComponents='1' type='Int32' Name='ParticleTetID' format='ascii'>
61220
-61515
3277
69247
-58962
23222
-66558
-58952
77922
34166
-66561
98736
42806
59078
61202
-64917
-61508
-68099
27399
-66554
-59783
72974
-58961
81758
-64916
-70586
-61515
-61512
33532
-68100
62987
87720
-68099
-72204
-112396
-72204
-66561
-66555
76783
-66557
-66585
66726
55115
-66560
-69092
9467
96215
74723
-64920
63093
-64914
59563
-61515
27395
19262
-61512
59617
10219
-64917
66119
60512
-64914
63219
75622
-72213
34091
58607
-64917
-66552
-66551
-66552
5397
-112396
-64916
68042
66758
74894
-58965
-63131
63130
56323
-72207
-64920
-66554
-58961
66726
-68099
-61515
-66557
-66558
52053
-64917
-72207
-66561
-61515
66402
85601
-58952
-64919
-66548
-66561
38507
-58962
3810
5067
-58955
-61518
-59786
6343
-66554
-66554
2273
42410
-61518
-70584
-58965
87804
-64914
10082
-61518
44728
-61508
-64917
-66554
-62952
27970
-146594
63023
-58962
-66560
64729
9469
-64914
-66588
-61518
-59791
-61512
-72207
-112396
7508
-72210
-58965
70395
-61512
-58955
68439
65637
-58955
-59791
-156163
-66588
-64911
-61515
-58955
-68105
59999
-66551
15133
51572
66926
57298
67109
-64916
-58958
57926
-72207
-64914
50950
61404
65686
30157
-66560
-58958
63002
-61511
-72203
10690
-61514
59927
-58958
-72213
-64919
-61512
-68099
98736
-68105
-64919
-68099
32445
4664
-58962
-61518
-59783
-63014
33246
-66558
-59786
70222
-59783
-66560
-58958
-58965
33263
-66557
63579
-59786
63848
-64914
-66551
15660
-63044
-72207
-64916
-68102
-66561
-59788
-61511
-63015
-61512
46006
-58955
-61518
31841
-61518
-58955
-66551
68843
-84717
63621
-61512
-66561
-136563
64761
-59785
-66551
73532
-61518
65242
65311
-68099
58296
-72204
-61521
-61512
-58958
-61518
63212
-68100
-66585
45268
-72204
-72207
-68103
-68102
-64917
57115
-61518
40351
29411
69517
43694
68978
-66554
-72207
-64913
-66551
32433
19217
-61521
4934
-64920
2213
-61514
43709
-61515
42743
-61517
-59786
-64916
72511
-64920
-64916
-66561
-64920
-61512
46743
-66564
32203
-58961
-58965
75079
-61512
-58955
19262
33063
67352
-66551
60656
-61518
7490
64822
-66555
-58952
-126563
62750
-66558
-61514
-68103
71724
-64919
-66561
9430
71903
-66555
-66551
14816
-61520
68490
-64920
61115
-58965
-58955
62906
64047
72788
-72207
66528
-66560
-59786
-61512
51860
35371
63514
-66557
47717
-66557
54842
-58968
66727
-58962
-58955
55578
-66551
-68105
69313
-61518
32330
-58958
-61518
-61512
-61512
-66561
7814
-61515
79165
5914
63491
-68102
-64914
-68105
-58955
-66551
-68100
-58961
53256
63509
-61518
82198
14338
62138
-61518
30260
-61511
-64920
-59788
-61514
69286
-66548
-61512
-68102
-66557
-66551
59493
-66551
2276
-112399
-58955
63206
60578
41314
-64919
9502
-61518
-61512
-66555
66473
-66552
91966
-61518
5384
-62951
7715
-66558
92064
-64920
-66551
60967
-66552
71320
-59786
-61508
-66561
-66588
11740
-61518
-66560
-61511
-58956
45131
-61518
-58965
52683
61777
-72210
-61509
-61518
-59791
65198
-66551
-126559
-61518
75407
-72207
-66554
2276
85664
-61512
-61518
-64913
71511
-66591
-64919
-58955
-66557
-61515
-59791
-59782
-66548
-64916
52197
76626
-66551
-66561
63136
82391
-72213
59457
-61515
-66552
-61512
26383
-64919
72490
-84632
7508
-66551
-66548
-61512
57306
-59783
27142
62228
91184
65687
-127033
-66551
66528
-64919
-62952
35377
91823
-61512
74052
-64919
63425
-58965
-61518
-68105
-61518
-61508
-68105
-68106
63461
98736
-153844
-66551
64424
-66548
61795
58400
</DataArray>
<DataArray NumberOfComponents='3' type='Float32' Name='vels' format='ascii'>
0.546859 0.000657 -0.002337
2.941750 0.743093 0.251364
1.163702 0.110847 -0.001078
1.559533 -0.191528 0.003583
4.011166 -0.808442 0.007605
0.313784 -0.001948 -0.001537
5.291425 0.658114 0.015048
1.176154 -0.254865 0.050298
0.511630 -0.001472 -0.000955
0.467599 0.349117 -0.003327
4.043204 0.516567 -0.062035
-0.001834 0.002587 0.004906
6.212056 -2.574232 -0.016323
0.099048 0.013341 -0.000053
0.011409 0.000032 -0.000023
4.781214 -0.633258 0.223552
2.072237 0.492204 0.162694
1.841632 -0.359408 0.096556
7.138931 -0.579652 -0.036984
4.618366 0.202199 0.374453
4.057130 0.583726 0.325260
0.299726 0.063108 -0.000013
3.564954 -0.948543 -0.100939
0.003576 -0.000313 0.000871
5.081494 -0.728568 0.061442
2.709453 -0.571234 0.037044
2.890267 0.733475 0.271122
2.291721 0.555347 0.251364
1.186324 1.244346 -0.002036
0.600488 -0.175699 0.015577
0.085242 0.000123 0.000288
-0.001518 -0.002618 -0.005326
3.213363 -0.761119 -0.003224
1.656845 -0.012767 0.231690
30.832558 8.406263 0.242404
1.694059 0.173883 0.293947
3.361597 0.485264 0.057820
5.072144 0.616756 0.203979
0.719918 -0.057844 -0.001546
4.822554 0.159554 -0.071552
0.163137 0.014290 0.007623
0.490635 0.065919 0.000048
1.266207 0.374374 -0.022623
3.522981 0.454183 -0.022000
1.981235 -0.030602 0.001087
0.552551 0.008495 0.000320
1.234992 -3.767378 -0.032243
0.213008 -0.189039 -0.013760
5.038774 -0.652624 0.013047
0.375981 0.003154 -0.000283
2.926561 -0.297746 0.581025
1.271746 -0.057963 0.002089
2.831417 0.656188 0.157502
0.160581 0.025772 -0.000576
-0.001793 0.000579 -0.000357
2.459462 0.587685 0.168515
0.938835 0.249249 0.000275
1.026800 -0.007466 0.000163
4.325011 -0.485807 0.474073
0.030465 0.008932 0.000029
1.928511 0.206615 -0.001459
3.009809 -0.323029 0.523657
1.450144 -0.417861 -0.005533
1.647987 0.401888 -0.036479
1.625300 0.032475 -0.102624
0.244598 0.075481 0.000648
0.395881 0.017670 -0.000318
4.340364 -0.231916 0.365021
3.114425 0.129711 0.500337
4.121013 0.480241 0.104173
3.314428 0.340714 0.441299
0.530142 0.001743 -0.001973
46.675339 14.517866 -0.076229
4.966831 -0.741021 0.103249
0.703586 0.000248 -0.001323
0.070131 0.000603 0.001503
0.027294 -0.007037 0.000104
4.058145 -0.762731 -0.344492
1.889371 0.057292 0.002064
0.078118 0.000091 0.000462
0.380727 0.067364 -0.000288
2.447300 0.404613 0.136695
4.955756 -0.666599 0.026369
5.270291 0.597518 0.093265
3.790543 -0.755850 0.004429
0.733081 0.098105 0.000532
3.198346 -0.576469 0.091015
2.891380 0.658313 0.072510
4.708169 0.714293 0.041555
5.286538 0.662013 0.016323
0.301516 -0.254315 0.000969
4.335292 -0.493674 0.469468
2.376679 0.415278 0.303110
3.978817 0.514039 -0.035953
2.925429 0.736889 0.253986
0.203358 -0.039667 -0.000186
0.006772 -0.004941 0.014460
1.565890 -0.337596 0.089770
4.657912 -0.665986 -0.017331
0.402313 0.016930 0.069481
4.122142 0.520750 -0.092827
0.270842 0.968478 -0.051667
4.068510 -0.838672 0.002245
-0.003004 -0.000006 0.001942
0.028169 0.004558 0.000134
3.529941 -0.711878 0.030954
2.701473 0.675651 0.006233
5.068028 0.739679 0.098900
0.040278 0.006528 -0.000083
5.282705 0.607003 0.090999
4.672356 0.220515 0.340548
0.001873 -0.000769 0.001408
0.425121 0.258061 0.000096
2.719856 0.689432 0.014472
1.875758 -0.371275 0.170103
3.526443 -0.813141 -0.314200
-0.003054 -0.001440 0.001332
2.977139 -0.317598 0.549789
0.113741 0.032204 -0.000027
2.856396 0.655576 -0.021302
0.054676 0.008905 0.000115
1.562766 0.369950 0.099079
5.097804 -0.739710 -0.004191
5.187976 0.534039 0.131804
2.184550 -0.057329 -0.002896
-0.004756 -0.006316 -0.000090
0.063052 -0.112684 0.126129
0.043289 0.000024 0.000161
3.941319 -0.939718 0.019078
3.094111 0.466580 0.051646
1.050282 0.275724 0.000696
0.309344 0.002438 0.000423
2.947628 -0.317004 0.559127
3.315421 0.229466 0.303735
3.114699 0.812712 -0.006021
3.981705 0.784788 -0.179278
2.397503 0.576482 0.045044
2.262234 -0.103763 0.199135
46.605008 17.425592 -0.121316
0.006920 -0.000008 -0.000203
2.453705 0.036037 -0.002453
3.273935 -0.703619 -0.146819
1.806428 0.126627 0.000375
2.267504 0.537684 0.170558
3.031390 -0.650702 0.168210
2.043469 -0.635861 -0.000649
3.125132 0.822297 0.004256
3.485382 -0.705401 0.047642
4.244217 0.718171 -0.088138
0.078912 -0.035162 -0.038296
3.309975 0.272851 0.268077
0.028963 -0.002091 0.012138
3.143853 0.750221 0.009430
3.065246 -0.673178 0.198509
4.241233 -0.744797 0.007929
1.993883 -0.465276 -0.003410
3.991307 0.425104 0.155119
1.211979 0.434698 0.002795
0.261869 0.569119 -0.001789
0.221792 -0.035576 -0.000216
0.993280 -0.008401 -0.001542
1.563788 -0.122699 -0.001390
4.864729 -0.743999 0.144699
4.023324 -0.834694 0.046985
0.004997 0.000025 -0.000068
2.333838 0.209392 0.090805
2.983754 -0.330680 0.536378
0.030174 -0.034996 -0.003491
0.717846 0.010290 0.001158
0.402183 0.116422 -0.000612
0.898262 -1.150691 0.000815
2.912069 0.446903 0.058844
4.195891 -0.823559 0.007726
0.784237 -0.009567 -0.001352
3.421469 0.801853 0.232091
1.914013 0.373947 0.333840
-0.000955 0.000447 0.000116
3.917611 0.961390 0.066384
0.003096 0.000012 -0.002138
3.998002 -0.839101 0.052347
2.110943 0.365026 -0.216448
4.558290 -0.718325 -0.153658
2.517882 0.602668 0.087560
2.602964 -0.618944 0.038887
-0.001093 0.001263 -0.000134
3.746715 -0.624846 0.010220
4.537418 -0.639668 -0.001990
2.525898 -0.494562 0.096555
5.959268 1.265255 0.003795
0.026816 0.004156 0.000915
4.022468 -0.876011 0.007542
3.114020 0.835475 0.004567
4.032579 0.575637 0.282121
1.501351 -0.039478 -0.000088
0.225845 0.011716 0.000361
5.273003 0.663612 0.018242