<VTKFile type='UnstructuredGrid' version='1.0' byte_order='LittleEndian' header_type='UInt64'>
<UnstructuredGrid>
<Piece NumberOfCells='500' NumberOfPoints='500'>
<Points>
<DataArray NumberOfComponents='3' type='Float32' Name='Position' format='ascii'>
624.640965 181.613601 -4.636055
1029.059357 188.209033 -16.808274
-106.048055 381.948839 -6.373448
799.578344 243.201059 -6.381089
1029.278797 232.304881 -20.074967
-99.576825 109.340972 -2.367397
1029.253611 152.748402 -21.930599
1028.999307 227.831264 -4.645276
613.674071 184.998405 -4.023827
270.169050 245.274775 -5.202843
1029.136333 154.676584 -29.201451
89.599003 177.561104 -26.460075
235.027970 203.805213 -6.290577
686.311593 129.068654 -4.404810
622.644563 216.912323 -4.358674
1029.359902 252.147987 -15.006536
1029.119520 187.784713 -4.743284
1029.087137 262.783777 -11.868301
279.173078 247.046097 -7.468152
1029.193912 138.980634 -19.474711
1029.180406 166.324271 -12.000646
684.506128 51.355799 -4.595059
1029.076102 228.539705 -26.569211
460.845748 396.346660 -3.660961
1029.103216 249.678682 -17.080837
1028.990499 208.533237 -16.447437
1029.196326 188.604010 -17.100767
1029.136178 186.426719 -8.694585
245.699459 251.005547 -37.578040
1029.023483 265.307023 -7.267714
678.742335 215.279870 -12.111986
440.533531 55.559124 -2.102260
1029.231420 262.000992 -8.732897
1029.083701 205.611464 -10.271489
422.306524 386.274159 -3.543799
1028.995048 200.728172 -8.454059
1029.074164 155.183680 -27.112406
1029.321351 153.281068 -16.377951
590.759361 174.573204 -31.486044
1028.982668 142.206514 -26.628187
1028.977491 138.452308 -6.168599
700.442981 131.652451 -2.695789
499.090280 47.061994 -36.231682
1029.147816 142.387907 -29.713177
846.419374 212.695429 -17.711160
-187.804130 220.188837 -37.593174
308.221968 86.577808 -35.249009
1001.605327 207.773758 -9.264390
1029.339088 256.934836 -22.392138
744.039200 189.819960 -6.846699
1029.096555 251.048780 -9.627166
1001.697996 233.607589 -5.617008
1029.044092 190.888146 -17.070591
334.950990 310.873997 -37.345479
-491.980697 186.836730 -2.146734
1029.140656 185.673421 -7.749712
593.157960 340.377586 -4.573191
-138.603475 181.160852 -30.929726
1029.281029 251.617953 -16.541149
740.140536 40.758311 -11.700945
682.276246 78.940891 -29.188485
1029.144067 251.298274 -9.433218
918.668312 305.973337 -8.078052
1029.092811 199.203232 -10.424503
1029.099325 207.296483 -29.207397
336.420545 262.695934 -37.605387
672.894526 160.201841 -36.528158
1029.003818 260.121252 -19.353480
1029.219105 141.565174 -7.227381
1029.030335 140.847806 -10.327024
1029.210581 151.177371 -10.058554
-106.372589 180.842647 -34.710595
422.743582 386.163063 -3.664093
1029.370072 249.889205 -17.917543
626.530034 222.995593 -3.712122
593.346135 214.127100 -30.973544
1002.920689 206.873609 -28.655446
1029.088630 226.583231 -26.791639
688.698249 192.141235 -7.882036
683.152273 182.350159 -13.182650
876.992708 110.077830 -6.247543
1029.075219 199.084609 -13.594524
1029.306689 250.607125 -21.757990
1029.275264 140.263570 -17.033113
1029.110714 228.986199 -22.802082
702.965949 132.552114 -4.085295
1029.118126 264.933374 -10.231840
1029.150350 191.275146 -16.086105
1029.304192 140.303527 -20.675616
1029.296586 152.742705 -21.728450
498.558085 204.342231 -33.413396
1029.317875 251.504023 -16.457303
1029.142010 196.584875 -14.344229
1029.292726 155.217574 -29.018318
1029.213633 188.409014 -16.858498
523.032760 205.261501 -1.810379
361.242447 72.212465 -0.458528
1029.083866 230.763947 -4.547148
1029.337316 249.376128 -23.538960
1029.006290 140.497051 -6.606818
1029.101994 154.322595 -29.456101
231.153363 310.131214 -12.545678
1029.023898 231.951962 -20.916878
-432.281812 176.837353 -26.661097
-357.997034 250.446221 -20.022731
1029.244989 230.300666 -9.687840
1029.187334 191.618517 -20.456878
1029.318341 165.992030 -17.959244
-263.658141 265.087718 -19.933898
1028.977543 140.299234 -17.001177
1029.189046 140.141349 -19.420439
-501.425059 192.515254 -9.293695
357.316836 355.215175 -3.373559
1029.088515 191.145182 -20.070877
1029.119364 214.611647 -7.296110
1029.162892 231.219450 -28.952026
439.544662 74.153564 -20.909818
1029.069190 250.884586 -9.429735
-127.972579 384.496518 -5.728335
1029.161448 191.361488 -22.229912
243.738004 157.150941 -35.886528
1029.017562 182.407524 -4.431521
1029.203531 259.133438 -14.979347
1029.386622 140.349597 -17.517165
823.098087 212.685268 -8.839563
122.302940 222.314694 -33.689991
377.639320 41.467018 -2.348081
712.139633 212.639553 -7.082736
1029.257480 229.715106 -21.899225
1029.221177 141.549552 -28.168380
528.724084 55.458221 -5.040223
-156.728905 214.706898 -5.605316
1029.184340 250.622315 -9.354484
1029.115912 138.104862 -11.754595
1029.020587 188.147850 -23.823336
1029.259073 166.069571 -28.080659
1029.121508 190.466885 -8.136797
1029.124786 206.293152 -17.948811
422.237684 386.356569 -3.913509
-159.854135 213.579617 -4.067140
1028.976683 198.275371 -20.143932
1029.216848 231.067388 -27.441933
792.541214 167.131226 -36.425351
1029.134359 189.002731 -8.993922
1028.982673 228.031097 -11.093356
1021.512928 263.911017 -6.886064
863.757499 76.593756 -20.304520
1029.064718 230.128527 -9.890916
1029.261154 171.158954 -29.184869
381.472231 52.266270 -10.001146
1029.152980 136.636137 -10.985803
1028.980528 254.689233 -4.344013
1029.072949 189.720784 -13.672791
1029.126679 229.823613 -11.368067
1029.116635 266.379400 -22.171789
768.893039 333.082721 -11.718640
1029.194718 140.926378 -10.790143
8.732899 216.751229 -31.285533
503.303574 142.014517 -2.533468
528.296504 187.890464 -5.573534
892.416336 218.637192 -12.482794
669.783109 361.404118 -12.002541
1029.165082 249.277036 -18.436584
1029.236544 229.448986 -17.039859
588.855515 108.940382 -1.838670
1029.046234 203.253687 -14.894425
1029.162656 250.509853 -9.214404
337.240825 92.806667 -26.564944
537.385672 4.106936 -13.332019
667.162619 24.329770 -12.524063
126.230077 252.721569 -17.232012
1028.993105 141.600352 -27.791848
1029.312762 229.305865 -15.668280
793.758094 222.213131 -4.169835
1029.207264 189.143456 -11.935037
1029.079315 195.523317 -11.910939
-521.934859 274.711522 -37.122336
1029.232534 189.628657 -19.390733
954.332162 188.889561 -9.396401
1029.259166 229.986926 -17.220021
1029.103068 198.247599 -27.320136
1028.989402 252.799752 -25.582654
1029.160703 187.417509 -7.500706
1029.086343 261.955222 -10.171866
90.193015 179.635598 -26.183229
1029.196213 265.861447 -23.563606
1029.060599 250.741090 -23.158830
1028.978047 263.287548 -11.028804
358.398353 64.617356 -14.785942
-130.115928 316.656735 -3.511432
1029.184939 230.710144 -21.207296
1029.139103 188.001014 -24.091368
1029.296602 165.116357 -11.684768
771.182512 212.663064 -28.661125
355.631451 321.677442 -2.702761
1029.246652 152.097065 -21.274371
1029.238727 166.185289 -18.220476
685.475994 25.279780 -12.467943
1029.317852 166.310171 -11.196974
1029.074538 141.753036 -28.112455
1028.978325 226.681346 -19.098767
1029.070636 229.001683 -26.946571
360.440002 313.237273 -34.910048
1029.076318 154.088305 -26.648681
1005.785805 118.094505 -8.011505
1029.134247 165.425647 -17.916420
667.453012 66.919942 -4.057745
1028.993193 251.027087 -9.360745
1029.191202 138.906774 -12.100933
-86.429913 180.111692 -2.732146
790.843373 212.671420 -15.948524
1028.987540 207.207378 -15.083185
1029.256612 249.121303 -18.632310
1029.083419 261.565138 -18.628778
1029.186294 141.644426 -26.875536
1029.125480 163.915666 -20.865933
1029.067550 187.903334 -11.437351
780.158774 212.668376 -28.398868
1028.977323 191.701105 -10.560304
58.159501 157.559736 -34.609029
1029.130325 227.908705 -11.363294
1029.161652 187.907923 -23.740786
371.017940 17.031027 -8.482586
1028.994581 191.539402 -20.807746
1029.089074 228.582486 -11.134421
1029.032689 139.337093 -11.491075
853.116429 181.591185 -26.531309
372.620258 58.008078 -18.904551
904.566249 88.189379 -20.548229
1029.118109 188.779216 -7.828990
1029.058995 154.448558 -27.720059
431.909000 254.555876 0.000849
518.960809 210.641427 -35.633732
1029.130825 162.909080 -15.085360
1029.287445 139.578995 -9.591735
527.460081 386.729628 -5.676833
1029.138655 191.579951 -20.417899
721.560385 220.102724 -25.955569
695.472347 180.797566 -19.935574
1029.215009 263.230013 -9.648705
1029.156459 142.382262 -28.460508
1029.034368 200.459019 -7.800582
1029.114565 185.116480 -26.917102
1029.027159 188.449629 -8.741109
1029.088616 227.990706 -18.525192
1028.995233 188.013687 -23.848952
765.031567 192.170510 -30.103184
1028.976192 263.358560 -7.415076
1028.983311 138.661981 -6.366192
321.887415 49.590398 -34.147354
1029.056723 204.324582 -9.094241
1028.993735 205.652109 -16.980837
1029.000713 266.680231 -14.841078
1029.019230 264.554280 -17.341043
1029.020443 260.195748 -17.082613
650.977718 167.347544 -6.006044
1029.136234 190.187559 -24.030354
52.017614 330.944665 -30.544540
82.069409 249.493578 -36.876131
655.185535 184.612133 -5.707657
316.717365 181.268942 -17.691720
644.764526 223.689475 -3.875768
1028.992364 140.724015 -18.226469
1029.094447 201.959905 -15.364515
1029.288175 250.532170 -11.240318
1028.982169 140.578835 -8.523235
364.730320 57.768006 -32.880569
-499.130640 188.923702 -25.194270
1028.991480 184.793799 -26.995024
-16.986379 278.141083 -4.305338
1029.263509 251.378450 -21.648380
-405.905130 125.909988 -36.031438
1029.055936 181.494904 -18.997324
311.308985 150.389585 -10.486019
1029.168282 189.604127 -16.148881
447.211087 74.188381 -24.162789
1029.060040 188.469406 -26.483053
1029.156936 166.796368 -19.504463
1029.062033 251.332961 -17.754174
923.933930 219.335681 -19.693318
1029.058731 251.612451 -21.507725
1029.209896 251.530546 -18.765869
1029.226357 141.141672 -26.962504
1029.035831 258.818714 -21.723534
1029.137454 191.840832 -7.148699
347.710626 30.313129 -32.311350
1028.992617 143.275617 -33.765066
343.673318 365.021583 -4.029054
1029.052570 231.238678 -23.593649
1028.981230 228.890302 -26.848342
950.158393 263.696294 -6.448137
1029.019086 186.784368 -8.920433
1029.062089 229.606706 -11.842059
-493.260568 185.962513 -4.206809
312.242043 35.164494 -34.075343
968.419771 187.953553 -29.920410
1029.055737 139.105929 -11.640209
634.480550 78.621828 -32.471974
1029.084872 192.212440 -20.238293
-193.811849 212.658519 -5.150448
520.006149 189.194384 -12.721538
1028.996143 151.715862 -17.273462
1028.994285 231.174448 -6.028807
411.591621 245.039275 -3.410562
595.772689 214.710528 -4.648831
1029.256785 153.702561 -22.613375
1029.274629 189.295571 -19.419725
1028.980026 266.824802 -15.162600
600.670367 41.159001 -28.055271
1029.096721 252.600993 -23.946544
1029.235200 153.879772 -27.568629
-222.810387 213.306040 -36.260037
1029.187861 266.035594 -23.100899
1029.273908 151.732683 -17.452964
1029.014351 139.407205 -11.818104
-67.035236 211.240498 -4.489461
1028.984348 184.826144 -32.941579
707.235587 134.121184 -3.413407
1028.980649 249.835231 -21.175183
891.221459 189.601376 -11.061157
1029.188393 230.634547 -28.444128
1029.080799 230.197874 -9.454699
719.670754 214.056074 -30.862053
925.226089 301.483562 -7.170355
982.473968 158.859536 -28.950249
1029.008500 206.564596 -15.792315
631.015182 152.008325 -2.325468
1029.067852 141.603446 -27.818469
1029.069269 165.176413 -18.524279
1029.133526 191.427176 -10.540003
485.761357 107.979723 -2.552402
281.218570 203.217730 -5.581515
672.756578 21.439729 -25.701764
1029.220334 140.786220 -22.054353
377.522217 253.172783 -34.386665
1029.175277 141.288491 -25.554240
487.139561 126.350138 -31.250259
1028.983994 232.598256 -35.049830
697.022158 130.340167 -4.688405
1029.228811 229.056026 -21.423484
1029.263211 229.727649 -8.828450
491.634432 197.421599 -29.355353
1029.255636 140.847097 -10.347196
1029.144526 262.952322 -22.063480
657.808197 55.078119 -32.972643
1029.093018 189.431262 -22.359625
318.347034 320.115077 -2.526786
1029.246426 229.393185 -16.587050
1029.139657 191.405911 -25.144298
1029.093379 191.825392 -10.545870
1029.146176 187.848913 -9.040993
1029.240783 141.515258 -27.379984
-197.010364 365.183038 -6.026734
1029.025452 191.423095 -15.451683
566.267509 365.196330 -5.611174
169.242595 190.719160 -26.168952
646.399431 12.759035 -10.304206
1029.083022 262.773429 -19.497108
1029.086616 250.371744 -7.973811
1029.037398 262.781573 -26.167907
1029.137774 227.226450 -10.712844
1029.144133 141.824809 -12.094427
1028.988883 264.995240 -7.280992
1029.072346 230.843770 -24.585391
502.379521 7.374297 -28.813114
684.450272 24.260193 -11.809239
1029.022948 190.328694 -22.596931
383.671883 264.319952 -20.025510
-109.471216 106.570662 -26.004385
742.008889 136.658428 -6.013104
1028.999467 189.009184 -23.377562
125.339825 196.450722 -5.568151
1029.220458 185.847851 -11.251454
1029.284457 252.216365 -23.460776
1029.129728 164.701498 -20.667179
1029.238084 189.379812 -19.425016
807.076284 311.572540 -12.533948
1028.998408 152.824558 -6.281295
1029.029557 189.622144 -9.059488
1029.097936 262.061277 -16.866182
1029.292222 139.341657 -20.537809
1029.028994 140.404660 -8.938870
863.978278 78.139047 -6.667161
1029.005844 140.255329 -9.204981
-500.388742 192.891081 -15.098519
422.364659 386.234165 -5.736371
1029.087163 227.049554 -11.271518
762.130573 188.243683 -19.273627
951.300719 292.802289 -18.031514
32.748947 17.721654 -11.539439
1029.284670 252.620977 -25.589771
-257.001973 212.959820 -37.641285
1029.146218 191.360374 -20.366622
1029.105913 190.489401 -8.928432
1028.984297 152.167014 -15.410153
529.438691 196.532144 -34.312726
1028.977495 139.629717 -6.673073
123.639191 258.757057 -34.747587
1029.217982 189.239624 -24.197824
-119.740573 176.760873 -5.745176
805.361828 212.678350 -9.199199
-184.939305 30.145699 -26.224767
1029.331110 152.525238 -20.330589
124.675088 231.578718 -36.224700
1029.187656 251.079710 -22.841616
1029.318670 140.222168 -7.695200
539.587476 169.947477 -6.083639
1029.189180 152.203793 -9.786901
1028.984107 199.209111 -10.400203
1029.020630 165.105675 -19.151886
1029.009679 191.458190 -6.372217
1029.190473 154.549839 -27.821762
1029.119299 138.490448 -7.169665
-77.295590 387.938587 -12.621366
1028.992859 189.529076 -21.214293
1029.200837 141.506837 -28.207214
1029.122687 189.627835 -12.980992
1029.110689 230.414989 -7.779148
312.686782 143.358752 -9.920547
1029.067094 190.358882 -21.601804
1029.149717 228.931587 -26.989552
499.909910 42.298009 -35.200117
664.215995 346.757288 -6.495367
1029.126705 199.221430 -20.196635
1028.978204 191.616251 -5.973972
1029.154759 191.002642 -23.581673
1029.118563 166.532241 -28.691753
781.554361 224.052046 -4.407897
1029.114841 139.297521 -11.567960
411.558032 245.110662 -3.276845
1029.136270 191.163161 -23.318089
695.176684 28.075782 -10.689584
1029.105731 205.069380 -15.635904
1028.991614 151.329544 -19.248305
-500.461222 193.093984 -15.347273
372.583227 54.707716 -20.816006
1029.120078 187.702432 -9.310782
1029.163817 184.148452 -21.974278
1029.312471 248.234907 -9.873754
575.865599 138.492264 -33.483395
1029.328978 136.843542 -18.881703
1029.094399 248.978200 -25.149447
1029.222021 229.310936 -11.098716
1029.172426 140.413768 -21.018412
1029.112981 188.285432 -16.581198
1029.118423 167.132526 -29.081801
1029.032436 162.086172 -8.090933
1029.041121 142.217793 -6.243565
1029.236015 251.014534 -17.909152
484.609111 220.314337 -35.232993
574.851597 238.621435 -1.757144
1028.977966 139.590846 -10.513834
1029.013381 155.959542 -27.775785
697.053182 178.427341 -26.504474
377.449126 255.787697 -33.656825
1029.030631 206.195502 -29.210784
992.380797 180.045065 -6.778772
1029.122752 191.332256 -15.803695
1029.022018 152.098673 -9.721617
1028.979961 185.456998 -7.675500
253.746037 156.967370 -31.559498
1029.034602 250.235039 -24.035320
1028.995501 195.148381 -11.832256
372.583433 59.776160 -12.460715
-155.537205 219.362414 -6.232207
1029.121923 139.486113 -10.572183
1028.993989 138.911566 -6.091481
1029.016906 187.725508 -9.274138
925.390077 217.136337 -28.182472
1029.281845 164.317919 -10.568704
252.368280 260.703086 -37.742382
796.802476 303.786436 -5.892048
124.251858 229.070271 -36.097621
680.637265 23.329941 -8.824366
400.884835 273.474580 -5.355285
1029.080642 139.809185 -8.448109
636.612581 159.052378 -2.340813
1029.190996 251.339016 -24.093351
823.576133 212.679033 -8.359305
320.970366 208.600767 -19.518366
167.125571 213.917250 -37.148305
1029.091622 188.026010 -8.426024
528.910020 145.638223 -1.560077
1029.233175 246.857364 -23.058501
720.150917 357.315155 -26.108742
1029.182799 226.565878 -26.855878
1029.101006 187.965896 -24.494495
1029.001557 265.025473 -24.043119
1029.035127 184.774956 -22.472807
1029.077783 191.459570 -6.368736
1029.147602 265.728428 -24.808093
1028.979811 266.614511 -21.884949
778.109950 345.814673 -23.984403
89.895066 178.629822 -26.225266
378.075462 7.721897 -0.963226
1029.072314 141.391280 -11.738849
819.569339 103.832663 -5.297412
1029.042814 142.222528 -5.287601
850.430091 290.801648 -6.664400
1002.694348 207.354689 -17.752910
</DataArray>
</Points>
<PointData>
<DataArray NumberOfComponents='1' type='Int32' Name='ParticleType' format='ascii'>
1
1
1
1
1
1
1
1
1
1
1
1
1
1
1
1
1
1
1
1
1
1
1
1
1
1
1
1
1
1
1
1
1
1
1
1
1
1
1
1
1
1
1
1
1
1
1
1
1
1
1
1
1
1
1
1
1
1
1
1
1
1
1
1
1
1
1
1
1
1
1
1
1
1
1
1
1
1
1
1
1
1
1
1
1
1
1
1
1
1
1
1
1
1
1
1
1
1
1
1
1
1
1
1
1
1
1
1
1
1
1
1
1
1
1
1
1
1
1
1
1
1
1
1
1
1
1
1
1
1
1
1
1
1
1
1
1
1
1
1
1
1
1
1
1
1
1
1
1
1
1
1
1
1
1
1
1
1
1
1
1
1
1
1
1
1
1
1
1
1
1
1
1
1
1
1
1
1
1
1
1
1
1
1
1
1
1
1
1
1
1
1
1
1
1
1
1
1
1
1
1
1
1
1
1
1
1
1
1
1
1
1
1
1
1
1
1
1
1
1
1
1
1
1
1
1
1
1
1
1
1
1
1
1
1
1
1
1
1
1
1
1
1
1
1
1
1
1
1
1
1
1
1
1
1
1
1
1
1
1
1
1
1
1
1
1
1
1
1
1
1
1
1
1
1
1
1
1
1
1
1
1
1
1
1
1
1
1
1
1
1
1
1
1
1
1
1
1
1
1
1
1
1
1
1
1
1
1
1
1
1
1
1
1
1
1
1
1
1
1
1
1
1
1
1
1
1
1
1
1
1
1
1
1
1
1
1
1
1
1
1
1
1
1
1
1
1
1
1
1
1
1
1
1
1
1
1
1
1
1
1
1
1
1
1
1
1
1
1
1
1
1
1
1
1
1
1
1
1
1
1
1
1
1
1
1
1
1
1
1
1
1
1
1
1
1
1
1
1
1
1
1
1
1
1
1
1
1
1
1
1
1
1
1
1
1
1
1
1
1
1
1
1
1
1
1
1
1
1
1
1
1
1
1
1
1
1
1
1
1
1
1
1
1
1
1
1
1
1
1
1
1
1
1
1
1
1
1
1
1
1
1
1
1
1
1
1
1
1
1
1
1
1
1
1
1
1
1
1
1
1
1
1
1
1
1
1
1
1
1
1
1
1
1
1
1
1
1
1
1
</DataArray>
<DataArray NumberOfComponents='1' type='Int32' Name='ParticleID' format='ascii'>
0
1
2
3
4
5
6
7
8
9
10
11
12
13
14
15
16
17
18
19
20
21
22
23
24
25
26
27
28
29
30
31
32
33
34
35
36
37
38
39
40
41
42
43
44
45
46
47
48
49
50
51
52
53
54
55
56
57
58
59
60
61
62
63
64
65
66
67
68
69
70
71
72
73
74
75
76
77
78
79
80
81
82
83
84
85
86
87
88
89
90
91
92
93
94
95
96
97
98
99
100
101
102
103
104
105
106
107
108
109
110
111
112
113
114
115
116
117
118
119
120
121
122
123
124
125
126
127
128
129
130
131
132
133
134
135
136
137
138
139
140
141
142
143
144
145
146
147
148
149
150
151
152
153
154
155
156
157
158
159
160
161
162
163
164
165
166
167
168
169
170
171
172
173
174
175
176
177
178
179
180
181
182
183
184
185
186
187
188
189
190
191
192
193
194
195
196
197
198
199
200
201
202
203
204
205
206
207
208
209
210
211
212
213
214
215
216
217
218
219
220
221
222
223
224
225
226
227
228
229
230
231
232
233
234
235
236
237
238
239
240
241
242
243
244
245
246
247
248
249
250
251
252
253
254
255
256
257
258
259
260
261
262
263
264
265
266
267
268
269
270
271
272
273
274
275
276
277
278
279
280
281
282
283
284
285
286
287
288
289
290
291
292
293
294
295
296
297
298
299
300
301
302
303
304
305
306
307
308
309
310
311
312
313
314
315
316
317
318
319
320
321
322
323
324
325
326
327
328
329
330
331
332
333
334
335
336
337
338
339
340
341
342
343
344
345
346
347
348
349
350
351
352
353
354
355
356
357
358
359
360
361
362
363
364
365
366
367
368
369
370
371
372
373
374
375
376
377
378
379
380
381
382
383
384
385
386
387
388
389
390
391
392
393
394
395
396
397
398
399
400
401
402
403
404
405
406
407
408
409
410
411
412
413
414
415
416
417
418
419
420
421
422
423
424
425
426
427
428
429
430
431
432
433
434
435
436
437
438
439
440
441
442
443
444
445
446
447
448
449
450
451
452
453
454
455
456
457
458
459
460
461
462
463
464
465
466
467
468
469
470
471
472
473
474
475
476
477
478
479
480
481
482
483
484
485
486
487
488
489
490
491
492
493
494
495
496
497
498
499
</DataArray>
<DataArray NumberOfComponents='1' type='Int8' Name='IsActive' format='ascii'>
1
0
1
1
0
1
0
0
1
1
0
1
1
1
1
0
0
0
1
0
0
1
0
1
0
0
0
0
1
0
1
1
0
0
0
0
0
0
1
0
0
1
1
0
0
1
1
1
0
1
0
1
0
1
1
0
1
1
0
1
1
0
1
0
0
1
1
0
0
0
0
1
0
0
1
1
1
0
0
1
1
0
0
0
0
1
0
0
0
0
1
0
0
0
0
1
1
0
0
0
0
1
0
1
1
0
0
0
1
0
0
1
1
0
0
0
1
0
1
0
1
0
0
0
0
1
0
0
0
0
1
1
0
0
0
0
0
0
0
1
0
0
1
0
0
1
1
0
0
0
0
0
0
0
0
1
0
1
1
1
1
1
0
0
1
0
0
1
1
1
1
0
0
1
0
0
1
0
1
0
0
0
0
0
1
0
0
0
1
1
0
0
0
0
1
0
0
1
0
0
0
0
1
0
1
0
1
0
0
1
0
0
0
0
0
0
0
0
0
1
0
0
1
0
0
0
1
0
1
0
0
0
1
0
0
1
0
1
1
0
0
0
0
0
0
0
0
0
0
1
0
0
0
0
0
1
0
1
1
1
1
1
0
0
0
0
1
1
0
1
0
1
0
1
0
1
0
0
0
1
0
0
0
0
0
1
0
1
0
0
1
0
0
1
1
1
0
1
0
1
1
0
0
0
1
0
0
0
1
0
0
1
0
0
0
1
0
1
0
1
0
0
1
1
1
0
1
0
0
0
1
1
1
0
1
0
1
0
1
0
0
1
0
0
1
0
1
0
0
0
0
0
1
0
1
1
1
0
0
0
0
0
0
0
1
1
0
1
1
1
0
1
0
0
0
0
1
0
0
0
0
0
1
0
1
0
0
1
1
1
0
1
0
0
0
1
0
1
0
1
0
1
0
1
0
0
1
0
0
0
0
0
0
1
0
0
0
0
1
0
0
1
1
0
0
0
0
1
0
0
0
1
0
0
1
0
0
0
0
1
0
0
0
0
0
0
0
0
0
1
1
0
0
1
1
0
1
0
0
0
1
0
0
0
1
0
0
0
1
0
1
1
1
1
0
0
1
0
0
1
1
0
1
0
1
0
0
0
0
0
0
0
1
1
0
0
1
0
1
1
</DataArray>
<DataArray NumberOfComponents='1' type='Int32' Name='ParticleTetID' format='ascii'>
72956
-61515
11719
60895
-58962
14294
-66558
-58952
59906
31015
-66561
98736
24679
68490
61202
-64917
-61508
-68099
30081
-66554
-59783
57313
-58961
81758
-64916
-70586
-61515
-61512
24821
-68100
62914
87720
-68099
-72204
-112396
-72204
-66561
-66555
79969
-66557
-66585
66710
52523
-66560
-69092
9521
45664
58397
-64920
63093
-64914
60679
-61515
37079
19262
-61512
71048
6962
-64917
63598
64398
-64914
60573
-72203
-72213
37115
56519
-64917
-66552
-66551
-66552
11571
-112396
-64916
68978
62762
58404
-58965
-63131
63130
78301
-72207
-64920
-66554
-58961
66710
-68099
-61515
-66557
-66558
52233
-64917
-72207
-66561
-61515
64890
85864
-58952
-64919
-66548
-66561
36184
-58962
3808
5067
-58955
-61518
-59786
6343
-66554
-66554
2273
42049
-61518
-70584
-58965
87804
-64914
10082
-61518
44782
-61508
-64917
-66554
-62952
27970
-146594
-63024
-58962
-66560
56719
7508
-64914
-66588
-61518
-59791
-61512
-72207
-112396
7508
-72210
-58965
60731
-61512
-58955
72741
63621
-58955
-59791
-156163
-66588
-64911
-61515
-58955
-68105
74344
-66551
32305
65738
66458
71735
62662
-64916
-58958
57926
-72207
-64914
45046
61402
63509
88038
-66560
-58958
63038
-61511
-72203
10690
-61514
67343
-58958
-72213
-64919
-61512
-68099
98736
-68105
-64919
-68099
47634
4664
-58962
-61518
-59783
-63014
32852
-66558
-59786
75407
-59783
-66560
-58958
-58965
43109
-66557
63561
-59786
64604
-64914
-66551
17282
-63044
-72207
-64916
-68102
-66561
-59788
-61511
-63015
-61512
45700
-58955
-61518
85257
-61518
-58955
-66551
68842
-84717
59553
-61512
-66561
-136563
64907
-59785
-66551
73531
-61518
63029
63116
-68099
-66560
-72204
-61521
-61512
-58958
-61518
-63212
-68100
-66585
33171
-72204
-72207
-68103
-68102
-64917
57781
-61518
38352
30131
63146
43694
65990
-66554
-72207
-64913
-66551
84856
19217
-61521
18794
-64920
2213
-61514
43709
-61515
55397
-61517
-59786
-64916
68137
-64920
-64916
-66561
-64920
-61512
32683
-66564
43544
-58961
-58965
70022
-61512
-58955
19262
30291
61664
-66551
67315
-61518
7490
66460
-66555
-58952
-126563
62750
-66558
-61514
-68103
69312
-64919
-66561
7414
-68105
-66555
-66551
18074
-61520
62100
-64920
71213
-58965
-58955
63032
57693
57362
-72207
58592
-66560
-59786
-61512
52922
33229
70228
-66557
82505
-66557
55940
-58968
66709
-58962
-58955
52284
-66551
-68105
69583
-61518
29198
-58958
-61518
-61512
-61512
-66561
7813
-61515
57458
35291
63653
-68102
-64914
-68105
-58955
-66551
-68100
-58961
69890
75407
-61518
82198
14339
62029
-61518
42806
-61511
-64920
-59788
-61514
70259
-66548
-61512
-68102
-66557
-66551
63615
-66551
2276
-112399
-58955
63205
60416
40253
-64919
7559
-61518
-61512
-66555
62871
-66552
91815
-61518
5383
-62951
7768
-66558
92064
-64920
-66551
71821
-66552
-72203
-59786
-61508
-66561
-66588
401
-61518
-66560
-61511
-58956
45131
-61518
-58965
52522
57385
-72210
-61509
-61518
-59791
65252
-66551
-126559
-61518
63544
-72207
-66554
2276
-85665
-61512
-61518
-64913
61179
-66591
-64919
-58955
-66557
-61515
-59791
-59782
-66548
-64916
51911
70884
-66551
-66561
63119
82391
-72213
79365
-61515
-66552
-61512
95383
-64919
-72203
-84632
13519
-66551
-66548
-61512
59810
-59783
33118
64279
91184
75405
-127033
-66551
58592
-64919
-62952
34315
37852
-61512
74052
-64919
63424
-58965
-61518
-68105
-61518
-61508
-68105
-68106
63263
98736
-153844
-66551
56881
-66548
61795
58400
</DataArray>
<DataArray NumberOfComponents='3' type='Float32' Name='vels' format='ascii'>
0.080913 -0.000322 -0.000605
2.941750 0.743093 0.251364
0.880410 0.031446 0.000321
1.606175 -0.161274 -0.000793
4.011166 -0.808442 0.007605
0.181332 0.000142 -0.000370
5.291425 0.658114 0.015048
1.176154 -0.254865 0.050298
0.191249 -0.006151 -0.001486
0.564798 0.392451 0.001112
4.043204 0.516567 -0.062035
0.001151 0.001046 0.002622
3.768950 1.201966 0.002880
0.743246 0.102326 -0.000201
0.069553 0.000150 0.000322
4.781214 -0.633258 0.223552
2.072237 0.492204 0.162694
1.841632 -0.359408 0.096556
1.588727 0.931954 -0.000559
4.618366 0.202199 0.374453
4.057130 0.583726 0.325260
1.444380 0.337259 -0.001295
3.564954 -0.948543 -0.100939
-0.006213 0.000331 0.000653
5.081494 -0.728568 0.061442
2.709453 -0.571234 0.037044
2.890267 0.733475 0.271122
2.291721 0.555347 0.251364
0.133702 0.183136 -0.000122
0.600488 -0.175699 0.015577
0.588914 -0.001845 -0.000081
0.000318 -0.003460 -0.005671
3.213363 -0.761119 -0.003224
1.656845 -0.012767 0.231690
30.832558 8.406263 0.242404
1.694059 0.173883 0.293947
3.361597 0.485264 0.057820
5.072144 0.616756 0.203979
1.206685 -0.017705 -0.000074
4.822554 0.159554 -0.071552
0.163137 0.014290 0.007623
0.575421 0.080784 0.000694
0.869467 0.322865 -0.002779
3.522981 0.454183 -0.022000
1.981235 -0.030602 0.001087
0.647673 0.018573 -0.002840
-0.005105 -0.047896 0.000275
-0.000325 0.005072 0.001327
5.038774 -0.652624 0.013047
0.352134 0.003206 -0.000757
2.926561 -0.297746 0.581025
1.387991 -0.312497 0.000153
2.831417 0.656188 0.157502
0.404806 0.032321 -0.001152
0.000247 0.000082 -0.000304
2.459462 0.587685 0.168515
0.581716 0.032929 -0.001263
0.024130 0.000021 0.000253
4.325011 -0.485807 0.474073
0.901601 0.257438 -0.000478
1.861813 0.338870 -0.000026
3.009809 -0.323029 0.523657
1.419904 -0.466558 -0.012710
2.169836 0.361286 0.178099
1.625300 0.032475 -0.102624
0.808993 0.078519 -0.001369
0.800064 0.043844 -0.000925
4.340364 -0.231916 0.365021
3.114425 0.129711 0.500337
4.121013 0.480241 0.104173
3.314428 0.340714 0.441299
0.436013 0.007272 -0.002722
46.675339 14.517866 -0.076229
4.966831 -0.741021 0.103249
0.584805 -0.006162 -0.000076
0.004178 0.000009 -0.000121
0.316199 -0.418716 0.069778
4.058145 -0.762731 -0.344492
1.889371 0.057292 0.002064
0.077636 0.000054 0.000062
1.736904 0.339786 0.008424
2.447300 0.404613 0.136695
4.955756 -0.666599 0.026369
5.270291 0.597518 0.093265
3.790543 -0.755850 0.004429
0.208079 0.029152 0.000014
3.198346 -0.576469 0.091015
2.891380 0.658313 0.072510
4.708169 0.714293 0.041555
5.286538 0.662013 0.016323
0.497546 -0.307469 0.000715
4.335292 -0.493674 0.469468
2.376679 0.415278 0.303110
3.978817 0.514039 -0.035953
2.925429 0.736889 0.253986
0.202168 -0.020027 0.000056
0.034267 0.010564 -0.004720
1.565890 -0.337596 0.089770
4.657912 -0.665986 -0.017331
0.402313 0.016930 0.069481
4.122142 0.520750 -0.092827
0.422931 0.930195 -0.001234
4.068510 -0.838672 0.002245
0.000431 -0.000018 -0.001110
0.033961 0.005485 -0.000063
3.529941 -0.711878 0.030954
2.701473 0.675651 0.006233
5.068028 0.739679 0.098900
0.048424 0.007845 -0.000129
5.282705 0.607003 0.090999
4.672356 0.220515 0.340548
0.001026 0.001455 0.000823
0.524116 0.382646 -0.000559
2.719856 0.689432 0.014472
1.875758 -0.371275 0.170103
3.526443 -0.813141 -0.314200
-0.002405 -0.001131 0.000597
2.977139 -0.317598 0.549789
0.007879 0.002289 -0.001618
2.856396 0.655576 -0.021302
0.018902 0.006060 -0.000037
1.562766 0.369950 0.099079
5.097804 -0.739710 -0.004191
5.187976 0.534039 0.131804
2.184550 -0.057329 -0.002896
0.015324 0.006266 0.000017
0.063052 -0.112684 0.126129
0.384938 -0.001348 0.000332
3.941319 -0.939718 0.019078
3.094111 0.466580 0.051646
1.261208 0.324463 0.000697
0.006088 0.000001 -0.000689
2.947628 -0.317004 0.559127
3.315421 0.229466 0.303735
3.114699 0.812712 -0.006021
3.981705 0.784788 -0.179278
2.397503 0.576482 0.045044
2.262234 -0.103763 0.199135
46.605008 17.425592 -0.121316
0.048573 -0.000105 -0.000689
2.453705 0.036037 -0.002453
3.273935 -0.703619 -0.146819
1.701698 0.126956 0.000308
2.267504 0.537684 0.170558
3.031390 -0.650702 0.168210
2.689249 -0.370237 0.033057
0.364082 0.104584 -0.008437
3.485382 -0.705401 0.047642
4.244217 0.718171 -0.088138
0.078912 -0.035162 -0.038296
3.309975 0.272851 0.268077
0.028963 -0.002091 0.012138
3.143853 0.750221 0.009430
3.065246 -0.673178 0.198509
4.241233 -0.744797 0.007929
2.416205 -0.607175 0.000884
3.991307 0.425104 0.155119
2.110230 0.419943 0.001591
0.112023 0.238369 -0.000114
0.320888 0.002527 -0.000293
0.085133 0.000161 -0.001664
1.847624 -0.469208 0.000617
4.864729 -0.743999 0.144699
4.023324 -0.834694 0.046985
0.052299 0.000475 0.000607
2.333838 0.209392 0.090805
2.983754 -0.330680 0.536378
0.041849 -0.042443 0.002324
0.003591 0.000005 -0.000339
0.160773 0.046534 -0.001106
0.208369 -1.375431 0.148258
2.912069 0.446903 0.058844
4.195891 -0.823559 0.007726
0.198265 -0.000747 0.001747
3.421469 0.801853 0.232091
1.914013 0.373947 0.333840
0.001975 0.000556 0.000134
3.917611 0.961390 0.066384
0.014913 0.000023 -0.000020
3.998002 -0.839101 0.052347
2.110943 0.365026 -0.216448
4.558290 -0.718325 -0.153658
2.517882 0.602668 0.087560
2.602964 -0.618944 0.038887
-0.000378 0.000840 -0.000000
3.746715 -0.624846 0.010220
4.537418 -0.639668 -0.001990
2.525898 -0.494562 0.096555
4.843343 -1.267942 3.235941
0.198634 0.029524 -0.000289
4.022468 -0.876011 0.007542
3.114020 0.835475 0.004567
4.032579 0.575637 0.282121
1.501351 -0.039478 -0.000088
0.157701 -0.011205 -0.003155
5.273003 0.663612 0.018242