<VTKFile type='UnstructuredGrid' version='1.0' byte_order='LittleEndian' header_type='UInt64'>
<UnstructuredGrid>
<Piece NumberOfCells='500' NumberOfPoints='500'>
<Points>
<DataArray NumberOfComponents='3' type='Float32' Name='Position' format='ascii'>
329.546904 226.989725 -4.927161
1029.059357 188.209033 -16.808274
-287.943498 337.321415 -6.022324
285.954415 256.671550 -10.452767
1029.278797 232.304881 -20.074967
-246.674196 127.844892 -2.143751
1029.253611 152.748402 -21.930599
572.082800 255.640947 -5.693773
317.143908 220.839838 -5.045410
-170.194324 274.341380 -5.048359
967.740530 144.294565 -29.290631
-1.798244 31.964943 -29.645604
-218.564330 222.283167 -6.037565
118.544152 186.576075 -4.054104
528.718194 199.027683 -5.072875
624.996419 340.916483 -15.333962
736.318955 172.570356 -6.682175
902.150412 299.142983 -12.033430
-294.981610 292.877875 -6.705095
1029.193912 138.980634 -19.474711
726.019371 138.969852 -13.151896
17.380518 134.080306 -4.494642
1029.076102 228.539705 -26.569211
325.232950 376.177081 -14.753040
1029.103216 249.678682 -17.080837
1028.990499 208.533237 -16.447437
280.847821 203.041846 -23.515709
1029.136178 186.426719 -8.694585
-5.744796 297.830722 -37.521736
323.880556 352.925662 -7.176885
573.488667 212.162681 -12.201916
1.897261 191.603828 -2.657575
592.643356 362.674936 -8.716738
789.116907 219.244715 -9.689253
257.264198 332.525959 -20.225808
614.926977 186.301085 -8.019287
1029.074164 155.183680 -27.112406
1029.321351 153.281068 -16.377951
354.113233 76.620279 -32.145622
1028.982668 142.206514 -26.628187
547.199407 34.325268 -6.256792
313.708796 102.524277 -3.886977
-7.083519 180.378898 -37.045484
543.637480 40.969985 -30.048938
605.646694 214.683994 -17.669429
-301.761833 217.853840 -37.712035
-4.094082 115.935662 -35.165976
674.593189 217.271865 -9.076355
663.391080 343.616086 -22.562049
592.082608 188.961636 -7.086662
1029.096555 251.048780 -9.627166
309.577349 256.578060 -6.806896
1029.044092 190.888146 -17.070591
1.943075 297.770307 -37.283905
-491.756132 186.604269 -1.905811
798.926786 171.671707 -8.154979
219.893299 218.527071 -5.246955
-393.277951 183.317181 -32.079831
1029.281029 251.617953 -16.541149
532.596464 5.886571 -11.393400
-1.123352 175.184685 -34.041597
1029.144067 251.298274 -9.433218
291.289066 365.848915 -9.594258
681.337396 182.854148 -10.729785
850.716216 221.433702 -28.896657
-2.537879 261.154451 -37.420937
497.259937 97.972169 -36.610910
1029.003818 260.121252 -19.353480
987.880845 134.293260 -7.715915
1029.030335 140.847806 -10.327024
980.518973 143.091623 -10.942732
-361.030474 183.549321 -35.002100
422.743582 386.163063 -3.664093
1029.370072 249.889205 -17.917543
137.381658 196.414062 -3.065550
517.804295 197.155942 -28.320066
672.868310 217.271182 -28.660738
1029.088630 226.583231 -26.791639
573.715897 194.564428 -8.446501
621.048471 181.806017 -13.379529
21.819974 175.015921 -7.018713
886.833670 186.743573 -13.570807
923.859009 273.467971 -21.823204
1029.275264 140.263570 -17.033113
1029.110714 228.986199 -22.802082
122.107852 185.070640 -3.750133
565.641786 367.319714 -10.722160
1029.150350 191.275146 -16.086105
1029.304192 140.303527 -20.675616
1029.296586 152.742705 -21.728450
-0.137971 235.257360 -35.382279
1029.317875 251.504023 -16.457303
905.212345 184.773137 -14.391384
1015.585768 153.427569 -29.009003
1029.213633 188.409014 -16.858498
13.252293 235.563726 -2.671350
-68.586371 222.654080 -2.497012
562.622922 261.647146 -6.151832
817.665151 299.310166 -23.450393
931.393002 116.025281 -6.698505
1029.101994 154.322595 -29.456101
-127.049003 384.172920 -12.200368
618.935232 262.143242 -21.105088
-432.392140 176.891246 -26.665267
-390.407842 245.675650 -20.003404
1029.244989 230.300666 -9.687840
364.206950 65.637773 -13.472672
1029.318341 165.992030 -17.959244
-342.903647 252.539276 -19.757278
1028.977543 140.299234 -17.001177
1029.189046 140.141349 -19.420439
-502.035503 192.291357 -9.799050
68.047455 293.221029 -3.384933
933.469845 177.552043 -20.161834
781.207379 228.410723 -7.704439
1029.162892 231.219450 -28.952026
325.728728 110.059807 -27.812248
826.767870 299.902661 -10.317620
-275.339549 343.410763 -5.522147
516.062640 150.990181 -22.288589
-42.106620 30.778726 -35.899129
553.926501 149.018144 -4.967345
809.076238 314.769791 -14.899782
1029.386622 140.349597 -17.517165
618.540511 215.415737 -8.903582
3.956862 311.178609 -33.880872
377.639320 41.467018 -2.348081
579.164968 213.147072 -6.949479
1029.257480 229.715106 -21.899225
1011.652749 139.117838 -28.185514
-109.281638 67.672828 -4.886092
-273.871493 213.671050 -5.206678
1029.184340 250.622315 -9.354484
1029.115912 138.104862 -11.754595
1029.020587 188.147850 -23.823336
1029.259073 166.069571 -28.080659
697.445538 169.859326 -8.262329
736.026239 219.944050 -17.498298
422.237684 386.356569 -3.913509
-277.488590 212.055633 -3.644458
751.479849 182.647185 -20.175403
1029.216848 231.067388 -27.441933
499.621156 98.918130 -36.517191
1029.134359 189.002731 -8.993922
1028.982673 228.031097 -11.093356
486.228865 373.475409 -6.429762
529.268051 7.660376 -20.022083
1029.064718 230.128527 -9.890916
1029.261154 171.158954 -29.184869
381.472231 52.266270 -10.001146
1029.152980 136.636137 -10.985803
533.976580 332.924119 -6.200937
1029.072949 189.720784 -13.672791
1029.126679 229.823613 -11.368067
805.747909 325.510966 -22.259741
-115.686301 375.229208 -13.234242
757.793068 71.232101 -11.001552
-223.532157 180.441217 -31.950802
-14.294929 224.715491 -2.951389
-61.423480 221.424072 -5.614992
644.452201 220.749808 -12.456814
-194.602476 358.968808 -13.333839
1029.165082 249.277036 -18.436584
335.209431 269.657438 -21.555467
313.756209 90.690961 -6.201335
717.852737 216.809480 -13.673110
879.716939 288.855870 -9.984856
315.786216 182.414521 -25.902120
492.799104 3.705969 -13.128216
486.105691 8.884802 -12.383848
-201.266134 365.281918 -18.981302
1028.993105 141.600352 -27.791848
1029.312762 229.305865 -15.668280
534.989370 208.749544 -4.556276
882.698121 178.851975 -12.858472
703.329591 178.900391 -12.366573
-521.942575 274.744461 -37.116998
814.642544 177.132937 -19.490643
681.978315 186.515056 -9.630507
1029.259166 229.986926 -17.220021
763.350761 182.850755 -27.426670
638.488317 341.751277 -25.393404
758.477983 170.150528 -8.048891
749.277367 333.730988 -10.116722
90.087479 179.193323 -26.438439
1029.196213 265.861447 -23.563606
1013.238888 252.847474 -23.094671
257.924830 328.009240 -16.166557
-273.933497 176.073934 -19.891841
-260.395186 294.495969 -3.370179
496.159138 251.747282 -21.438698
1029.139103 188.001014 -24.091368
783.596923 145.604964 -12.321294
601.531723 214.511322 -28.468668
35.125169 296.742672 -2.737991
1029.246652 152.097065 -21.274371
1029.238727 166.185289 -18.220476
533.739317 6.043462 -12.232032
1029.317852 166.310171 -11.196974
1017.882591 140.350177 -28.028978
1028.978325 226.681346 -19.098767
1029.070636 229.001683 -26.946571
36.853854 300.537009 -34.888301
800.995053 100.022782 -26.467886
469.027286 5.518286 -7.135939
1029.134247 165.425647 -17.916420
-3.092174 137.515333 -4.844083
676.322811 330.499265 -10.230272
1029.191202 138.906774 -12.100933
-271.556976 181.459419 -2.500809
642.472453 214.646153 -15.886095
1028.987540 207.207378 -15.083185
785.779684 303.931459 -18.695567
1029.083419 261.565138 -18.628778
1029.186294 141.644426 -26.875536
1029.125480 163.915666 -20.865933
1029.067550 187.903334 -11.437351
596.831466 214.432929 -28.333553
894.434066 181.295329 -10.911169
-68.119856 19.219049 -34.463697
1029.130325 227.908705 -11.363294
-82.941762 180.623742 -29.628274
-108.514088 60.827871 -34.201971
1028.994581 191.539402 -20.807746
1029.089074 228.582486 -11.134421
864.028656 94.738040 -11.677597
676.823620 179.865207 -26.023137
109.484504 202.564122 -35.949803
494.181255 6.389966 -20.170811
667.876723 166.120050 -8.039928
1029.058995 154.448558 -27.720059
198.971568 198.467387 -3.366006
156.118635 191.936849 -36.034995
1029.130825 162.909080 -15.085360
667.957833 47.997919 -9.527060
151.186382 219.911591 -4.214734
1029.138655 191.579951 -20.417899
315.298425 228.827752 -33.095885
460.835739 224.148294 -17.699569
562.250599 364.004496 -9.636815
19.392990 145.956789 -34.744714
612.938132 184.492916 -7.482382
1029.114565 185.116480 -26.917102
978.619594 176.690015 -8.896482
1029.088616 227.990706 -18.525192
18.596949 221.481746 -28.874242
576.861499 191.736641 -30.143148
505.936867 362.656727 -8.261281
560.477503 36.127487 -6.659598
-46.674933 122.407398 -34.195589
702.215461 219.326136 -8.161748
835.087312 217.910607 -16.703886
864.454090 311.738809 -14.991123
785.189124 328.826983 -17.484972
1029.020443 260.195748 -17.082613
30.345513 213.988781 -4.875828
322.117964 110.685268 -25.163660
-204.149873 366.574039 -30.954429
-147.934261 321.047896 -36.917632
519.599800 195.460413 -6.453393
318.458243 188.580520 -17.937440
205.601992 193.973571 -3.501952
1028.992364 140.724015 -18.226469
733.528328 188.989277 -14.408413
1029.288175 250.532170 -11.240318
1028.982169 140.578835 -8.523235
-2.195278 205.274302 -36.828746
-498.865148 188.759135 -24.733926
1028.991480 184.793799 -26.995024
-206.486801 272.921714 -4.199542
1029.263509 251.378450 -21.648380
-405.722427 126.114035 -35.848989
1029.055936 181.494904 -18.997324
-28.964793 202.989422 -12.739427
1029.168282 189.604127 -16.148881
-219.864699 175.060487 -26.212504
950.385459 175.420519 -25.863709
780.629024 147.077134 -19.756081
1029.062033 251.332961 -17.754174
667.953873 220.493459 -18.991319
1029.058731 251.612451 -21.507725
1029.209896 251.530546 -18.765869
1029.226357 141.141672 -26.962504
876.218290 299.019237 -21.792893
705.866332 171.922073 -7.645284
-96.106033 108.939537 -34.175944
992.294645 137.334957 -33.255418
29.592798 315.939806 -4.293445
1029.052570 231.238678 -23.593649
32.204004 263.492636 -31.698659
538.456232 321.584948 -6.270294
1029.019086 186.784368 -8.920433
1029.062089 229.606706 -11.842059
-492.540869 185.866340 -3.225229
-52.459915 37.697607 -33.861955
646.571872 185.075535 -29.417833
1029.055737 139.105929 -11.640209
-149.768112 115.501003 -31.686020
821.539966 178.236061 -20.302665
-312.618884 211.613444 -4.699310
-189.307220 217.105138 -12.597596
1028.996143 151.715862 -17.273462
697.556842 254.578873 -6.966388
411.591621 245.039275 -3.410562
566.233298 201.336892 -6.680104
1029.256785 153.702561 -22.613375
1029.274629 189.295571 -19.419725
296.691659 360.241957 -20.302732
-86.208758 64.106821 -33.453126
687.878861 331.968780 -24.012857
1029.235200 153.879772 -27.568629
-338.176098 211.819037 -36.713448
-30.941544 347.549209 -26.728393
1029.273908 151.732683 -17.452964
1029.014351 139.407205 -11.818104
-255.034491 214.832157 -4.309272
706.259201 164.616121 -32.195882
205.833920 181.349310 -3.858717
1028.980649 249.835231 -21.175183
644.075873 186.866006 -11.357786
1029.188393 230.634547 -28.444128
1029.080799 230.197874 -9.454699
571.594162 209.681436 -30.768992
325.608256 370.390085 -9.516118
4.584990 212.701767 -35.473615
1029.008500 206.564596 -15.792315
251.512761 194.993981 -3.449857
782.736945 79.024322 -27.764226
1029.069269 165.176413 -18.524279
832.585646 178.771645 -11.062978
-85.586016 220.819179 -2.950063
-183.996125 174.766630 -5.465493
462.137690 4.693405 -24.920748
1029.220334 140.786220 -22.054353
-5.892065 232.317985 -37.705692
1029.175277 141.288491 -25.554240
313.585678 172.864779 -33.550217
608.472197 266.274948 -34.756296
300.340429 143.098989 -6.221130
1029.228811 229.056026 -21.423484
1029.263211 229.727649 -8.828450
-178.081387 219.844154 -32.212657
1029.255636 140.847097 -10.347196
505.763952 363.435239 -22.133120
-36.438282 89.226715 -34.145765
1029.093018 189.431262 -22.359625
-24.512953 327.640895 -2.532852
308.416456 259.525244 -19.611777
313.884013 134.254804 -31.485698
441.475806 73.613445 -6.936575
1029.146176 187.848913 -9.040993
1029.240783 141.515258 -27.379984
-350.067247 321.899278 -5.775779
716.383196 172.866442 -15.623873
179.600500 211.487524 -5.829790
-282.448537 218.563153 -26.267849
284.509412 38.164460 -8.483149
1029.083022 262.773429 -19.497108
712.444215 321.817840 -8.402866
624.987111 366.145292 -26.149664
1029.137774 227.226450 -10.712844
1029.144133 141.824809 -12.094427
515.389540 365.425715 -7.694110
1029.072346 230.843770 -24.585391
-22.174074 28.481423 -31.724126
490.105957 4.813223 -11.432800
-84.232504 211.683517 -27.965689
208.410423 203.205883 -35.823632
-228.512982 123.736549 -26.169625
622.207482 119.150337 -5.897328
-11.052838 216.189065 -28.640599
-205.898652 220.176559 -5.663707
1029.220458 185.847851 -11.251454
620.530402 342.349634 -23.540910
1029.129728 164.701498 -20.667179
192.375521 187.031559 -22.234683
387.749415 289.165729 -6.605717
576.601067 64.681697 -6.792453
899.191847 178.728121 -9.097638
1029.097936 262.061277 -16.866182
1029.292222 139.341657 -20.537809
1029.028994 140.404660 -8.938870
455.848736 6.778565 -6.008484
1029.005844 140.255329 -9.204981
-501.505483 193.528120 -16.979153
422.364659 386.234165 -5.736371
1029.087163 227.049554 -11.271518
602.414041 187.481159 -19.344319
610.678496 386.095118 -18.160419
-136.811718 15.392776 -11.469752
609.907173 344.137891 -25.353573
-391.359306 211.771068 -38.081676
1029.146218 191.360374 -20.366622
535.570923 160.293307 -9.175990
1028.984297 152.167014 -15.410153
212.490146 193.364683 -34.329792
803.975781 80.091997 -6.786927
-32.574768 379.824279 -34.732899
1008.744455 183.617042 -24.069154
-245.378611 177.895956 -5.510649
606.790567 214.932494 -9.323254
-332.465249 72.505116 -26.424436
532.387392 60.089102 -20.461048
-24.886683 364.552415 -36.004516
1029.187656 251.079710 -22.841616
889.240769 101.794064 -7.718330
331.375969 98.277260 -5.055486
1029.189180 152.203793 -9.786901
683.211429 182.866828 -10.613752
841.635626 153.915944 -19.171410
518.144193 155.366201 -6.969668
1029.190473 154.549839 -27.821762
652.032024 41.617990 -6.915401
-253.802372 350.520783 -12.527615
1028.992859 189.529076 -21.214293
594.009165 41.124468 -28.473848
1029.122687 189.627835 -12.980992
332.106830 277.925381 -11.586863
-124.739744 215.309826 -11.334696
1029.067094 190.358882 -21.601804
1008.532369 233.220058 -26.313772
0.029576 116.679617 -35.702939
369.862942 344.799843 -6.451143
917.531944 186.472150 -20.283952
598.179385 168.356180 -7.226146
848.329950 178.775333 -23.638236
1029.118563 166.532241 -28.691753
321.041465 243.365128 -5.839146
1029.114841 139.297521 -11.567960
401.955264 245.546185 -3.529261
666.688795 170.726699 -23.379709
468.796882 4.589385 -10.167786
1029.105731 205.069380 -15.635904
564.579896 61.969475 -19.427212
-501.737397 193.711176 -17.426333
47.079600 226.344949 -36.156005
1026.702931 187.111546 -9.606495
1029.163817 184.148452 -21.974278
1029.312471 248.234907 -9.873754
-13.520460 201.230103 -35.481454
1029.328978 136.843542 -18.881703
272.715851 259.351665 -31.594176
1029.222021 229.310936 -11.098716
1029.172426 140.413768 -21.018412
-93.063829 181.984977 -22.069919
1029.118423 167.132526 -29.081801
797.962463 144.184634 -7.353344
685.955324 59.833507 -6.615055
1029.236015 251.014534 -17.909152
0.046183 239.281244 -37.006309
122.342919 205.071313 -3.174519
1028.977966 139.590846 -10.513834
1029.013381 155.959542 -27.775785
375.495945 240.307341 -19.663040
-0.002180 240.979331 -36.839168
794.941674 220.944860 -28.897833
291.012416 194.187315 -6.401189
1029.122752 191.332256 -15.803695
1029.022018 152.098673 -9.721617
646.069804 162.420252 -8.125598
-193.871685 35.066336 -31.800878
798.135130 304.660338 -23.935412
668.615960 178.227557 -12.238211
114.097901 200.339691 -35.424717
-255.183174 218.382884 -6.067768
1029.121923 139.486113 -10.572183
565.550041 36.194918 -6.190830
1029.016906 187.725508 -9.274138
240.069012 208.809963 -35.078271
1029.281845 164.317919 -10.568704
-7.299552 298.463107 -37.643903
540.804497 316.163417 -6.120096
-17.165619 348.890504 -35.911303
290.089449 123.856892 -4.731183
400.884835 273.474580 -5.355285
1029.080642 139.809185 -8.448109
239.503693 191.173068 -3.800122
605.201631 340.585249 -24.036025
620.494572 215.580085 -8.445513
-212.718734 213.581076 -19.314786
-6.017443 329.698896 -37.347680
967.870149 175.583986 -8.681216
17.610599 209.145621 -3.161945
886.964809 281.651067 -23.295208
488.672440 389.684461 -25.455709
1029.182799 226.565878 -26.855878
-42.849712 211.299664 -28.966291
547.700415 366.041509 -24.010006
221.996097 189.034531 -29.027574
613.286885 168.603425 -7.003117
969.300635 278.508643 -24.677502
995.801468 273.646904 -21.956486
313.162801 371.405662 -27.524018
89.829103 177.940367 -27.660091
377.440973 9.598516 -1.237976
1029.072314 141.391280 -11.738849
16.101318 169.718961 -10.205984
714.560584 64.471888 -6.126315
313.048633 273.246070 -10.527056
679.809143 216.630824 -17.332468
</DataArray>
</Points>
<PointData>
<DataArray NumberOfComponents='1' type='Int32' Name='ParticleType' format='ascii'>
1
1
1
1
1
1
1
1
1
1
1
1
1
1
1
1
1
1
1
1
1
1
1
1
1
1
1
1
1
1
1
1
1
1
1
1
1
1
1
1
1
1
1
1
1
1
1
1
1
1
1
1
1
1
1
1
1
1
1
1
1
1
1
1
1
1
1
1
1
1
1
1
1
1
1
1
1
1
1
1
1
1
1
1
1
1
1
1
1
1
1
1
1
1
1
1
1
1
1
1
1
1
1
1
1
1
1
1
1
1
1
1
1
1
1
1
1
1
1
1
1
1
1
1
1
1
1
1
1
1
1
1
1
1
1
1
1
1
1
1
1
1
1
1
1
1
1
1
1
1
1
1
1
1
1
1
1
1
1
1
1
1
1
1
1
1
1
1
1
1
1
1
1
1
1
1
1
1
1
1
1
1
1
1
1
1
1
1
1
1
1
1
1
1
1
1
1
1
1
1
1
1
1
1
1
1
1
1
1
1
1
1
1
1
1
1
1
1
1
1
1
1
1
1
1
1
1
1
1
1
1
1
1
1
1
1
1
1
1
1
1
1
1
1
1
1
1
1
1
1
1
1
1
1
1
1
1
1
1
1
1
1
1
1
1
1
1
1
1
1
1
1
1
1
1
1
1
1
1
1
1
1
1
1
1
1
1
1
1
1
1
1
1
1
1
1
1
1
1
1
1
1
1
1
1
1
1
1
1
1
1
1
1
1
1
1
1
1
1
1
1
1
1
1
1
1
1
1
1
1
1
1
1
1
1
1
1
1
1
1
1
1
1
1
1
1
1
1
1
1
1
1
1
1
1
1
1
1
1
1
1
1
1
1
1
1
1
1
1
1
1
1
1
1
1
1
1
1
1
1
1
1
1
1
1
1
1
1
1
1
1
1
1
1
1
1
1
1
1
1
1
1
1
1
1
1
1
1
1
1
1
1
1
1
1
1
1
1
1
1
1
1
1
1
1
1
1
1
1
1
1
1
1
1
1
1
1
1
1
1
1
1
1
1
1
1
1
1
1
1
1
1
1
1
1
1
1
1
1
1
1
1
1
1
1
1
1
1
1
1
1
1
1
1
1
1
1
1
1
1
1
1
1
1
1
1
1
1
1
1
1
1
1
1
1
1
1
1
1
1
</DataArray>
<DataArray NumberOfComponents='1' type='Int32' Name='ParticleID' format='ascii'>
0
1
2
3
4
5
6
7
8
9
10
11
12
13
14
15
16
17
18
19
20
21
22
23
24
25
26
27
28
29
30
31
32
33
34
35
36
37
38
39
40
41
42
43
44
45
46
47
48
49
50
51
52
53
54
55
56
57
58
59
60
61
62
63
64
65
66
67
68
69
70
71
72
73
74
75
76
77
78
79
80
81
82
83
84
85
86
87
88
89
90
91
92
93
94
95
96
97
98
99
100
101
102
103
104
105
106
107
108
109
110
111
112
113
114
115
116
117
118
119
120
121
122
123
124
125
126
127
128
129
130
131
132
133
134
135
136
137
138
139
140
141
142
143
144
145
146
147
148
149
150
151
152
153
154
155
156
157
158
159
160
161
162
163
164
165
166
167
168
169
170
171
172
173
174
175
176
177
178
179
180
181
182
183
184
185
186
187
188
189
190
191
192
193
194
195
196
197
198
199
200
201
202
203
204
205
206
207
208
209
210
211
212
213
214
215
216
217
218
219
220
221
222
223
224
225
226
227
228
229
230
231
232
233
234
235
236
237
238
239
240
241
242
243
244
245
246
247
248
249
250
251
252
253
254
255
256
257
258
259
260
261
262
263
264
265
266
267
268
269
270
271
272
273
274
275
276
277
278
279
280
281
282
283
284
285
286
287
288
289
290
291
292
293
294
295
296
297
298
299
300
301
302
303
304
305
306
307
308
309
310
311
312
313
314
315
316
317
318
319
320
321
322
323
324
325
326
327
328
329
330
331
332
333
334
335
336
337
338
339
340
341
342
343
344
345
346
347
348
349
350
351
352
353
354
355
356
357
358
359
360
361
362
363
364
365
366
367
368
369
370
371
372
373
374
375
376
377
378
379
380
381
382
383
384
385
386
387
388
389
390
391
392
393
394
395
396
397
398
399
400
401
402
403
404
405
406
407
408
409
410
411
412
413
414
415
416
417
418
419
420
421
422
423
424
425
426
427
428
429
430
431
432
433
434
435
436
437
438
439
440
441
442
443
444
445
446
447
448
449
450
451
452
453
454
455
456
457
458
459
460
461
462
463
464
465
466
467
468
469
470
471
472
473
474
475
476
477
478
479
480
481
482
483
484
485
486
487
488
489
490
491
492
493
494
495
496
497
498
499
</DataArray>
<DataArray NumberOfComponents='1' type='Int8' Name='IsActive' format='ascii'>
1
0
1
1
0
1
0
1
1
1
1
1
1
1
1
1
1
1
1
0
1
1
0
1
0
0
1
0
1
1
1
1
1
1
1
1
0
0
1
0
1
1
1
1
1
1
1
1
1
1
0
1
0
1
1
1
1
1
0
1
1
0
1
1
1
1
1
0
1
0
1
1
0
0
1
1
1
0
1
1
1
1
1
0
0
1
1
0
0
0
1
0
1
1
0
1
1
1
1
1
0
1
1
1
1
0
1
0
1
0
0
1
1
1
1
0
1
1
1
1
1
1
1
0
1
1
0
1
0
1
1
1
0
0
0
0
1
1
0
1
1
0
1
0
0
1
1
0
0
0
0
1
0
0
1
1
1
1
1
1
1
1
0
1
1
1
1
1
1
1
1
0
0
1
1
1
1
1
1
0
1
1
1
1
1
0
1
1
1
1
1
0
1
1
1
0
0
1
0
1
0
0
1
1
1
0
1
1
0
1
1
0
1
0
0
0
0
1
1
1
0
1
1
0
0
1
1
1
1
1
0
1
1
0
1
1
0
1
1
1
1
1
0
1
0
1
1
1
1
1
1
1
1
1
0
1
1
1
1
1
1
1
0
1
0
0
1
1
0
1
0
1
0
1
0
1
1
1
0
1
0
0
0
1
1
1
1
1
0
1
1
0
0
1
1
1
0
1
1
1
1
0
1
0
1
0
0
1
1
1
0
1
1
0
0
1
1
1
0
1
0
0
1
1
1
0
1
1
0
1
1
1
1
0
1
0
1
1
1
0
0
1
0
1
1
0
1
1
1
1
0
0
1
1
1
1
1
0
1
1
0
0
1
0
1
1
1
1
1
1
1
1
0
1
0
1
1
1
1
0
0
0
1
0
1
0
0
1
1
1
1
1
0
1
0
1
1
1
1
1
1
1
1
1
0
1
1
0
1
1
1
0
1
1
0
1
0
1
1
0
1
1
1
1
1
1
0
1
0
1
1
1
0
1
1
1
1
0
0
1
0
1
0
0
1
0
1
1
0
1
1
0
0
1
1
1
1
0
0
1
1
1
1
1
1
0
1
0
1
0
1
1
1
1
0
0
1
1
1
1
1
1
1
1
1
0
1
1
1
1
1
1
1
1
1
0
1
1
1
1
</DataArray>
<DataArray NumberOfComponents='1' type='Int32' Name='ParticleTetID' format='ascii'>
42841
-61515
9757
30027
-58962
6768
-66558
66853
40448
6410
65984
15421
7400
32924
62857
69038
60303
60179
8661
-66554
62141
31088
-58961
26936
-64916
-70586
33239
-61512
12904
29505
72292
30458
67055
65254
30681
59909
-66561
-66555
43088
-66557
57043
45254
2932
71726
67418
9448
14182
62915
56603
62769
-64914
32907
-61515
29086
19262
56991
36451
16033
-64917
61403
2824
-64914
33681
63131
69096
5866
52162
-64917
78737
-66551
69935
34
-112396
-64916
40826
66469
62924
-58965
74793
61224
30963
79892
74548
-66554
-58961
44426
57461
-61515
-66557
-66558
6262
-64917
67470
67406
-61515
31808
24174
75907
64109
57837
-66561
10085
70425
3808
6111
-58955
85049
-59786
7225
-66554
-66554
2273
29414
59463
65253
-58965
43610
61995
7994
74405
15405
69158
70262
-66554
61205
29085
-146594
75045
-58962
75236
12979
7418
-64914
-66588
-61518
-59791
59061
62936
-112396
7418
65385
-58965
52126
-61512
-58955
52075
61407
-58955
-59791
-156163
-66588
73387
-61515
-58955
77014
3280
67271
7376
5904
21223
65992
9744
-64916
37109
95750
63024
57010
43697
52942
52942
7820
-66560
-58958
60248
79564
65362
10690
63062
63131
-58958
65406
64648
77079
72815
98736
-68105
76042
30680
7333
6698
52443
-61518
62123
67424
36000
-66558
-59786
61403
-59783
71346
-58958
-58965
36015
60472
52401
-59786
10477
63724
-66551
7328
62684
-72207
62234
-68102
-66561
-59788
-61511
71437
67845
13211
-58955
22910
24209
-61518
-58955
57083
63137
34469
53073
71913
-66561
31771
36719
-59785
74309
91022
-61518
32053
53036
69537
48959
59907
-61521
58485
-58958
32882
74876
67701
78751
485
62895
67778
67238
75608
-64917
31357
43607
7826
12419
66457
45080
39116
-66554
63096
-64913
-66551
5903
19217
-61521
6392
-64920
2213
-61514
40
-61515
7373
69076
64177
-64916
65167
-64920
-64916
-66561
57879
58683
14307
78745
24896
-58961
28237
78319
-61512
-58955
19262
15407
69528
-66551
6835
66663
7454
9508
-66555
59313
-126563
69789
-66558
-61514
33687
8189
63731
-66561
11122
4548
-66555
-66551
7544
59071
39114
-64920
72688
-58965
-58955
59720
26933
32308
-72207
32437
73310
-59786
67035
18866
9289
53218
-66557
6262
-66557
51027
75365
26444
-58962
-58955
7538
-66551
67709
18737
-61518
5150
27619
45032
54039
-61512
-66561
8029
58686
37873
9532
29381
-68102
67144
58816
-58955
-66551
67701
-58961
3415
52943
4422
34701
6922
72667
6240
9451
-61511
77033
-59788
25049
82961
68025
67845
-68102
-66557
-66551
53246
-66551
2276
-112399
-58955
65906
56942
14008
79949
15443
-61518
75191
-66555
39131
73353
1365
76276
9271
67415
8362
56727
11591
-64920
58701
25094
-66552
63130
62881
74397
-66561
72975
7852
-61518
59882
-61511
38218
5404
-61518
60688
30868
49321
71955
71103
68913
-59791
30781
-66551
122548
71921
52402
-72207
68713
2276
30275
61511
-61518
-64913
19565
-66591
29965
-58955
-66557
7083
-59791
64155
56953
-64916
30454
44137
-66551
-66561
82989
5884
63048
33409
-61515
-66552
57767
9679
64289
65290
34469
7544
-66551
71389
-61512
25289
-59783
12904
56485
2807
93816
-127033
-66551
26480
68931
61205
7406
17818
58613
32868
60329
52913
-58965
14522
77537
35382
74595
71903
79588
26112
98736
146518
-66551
30963
58249
28426
62918
</DataArray>
<DataArray NumberOfComponents='3' type='Float32' Name='vels' format='ascii'>
0.572039 0.386512 0.000965
2.941750 0.743093 0.251364
0.628431 0.178117 0.000246
1.496836 1.039469 -0.001195
4.011166 -0.808442 0.007605
0.346279 -0.053691 0.000212
5.291425 0.658114 0.015048
0.921949 0.060104 0.000008
0.569119 0.249038 -0.001905
0.240867 0.038033 0.000745
3.589935 0.578536 0.001948
0.216596 0.237705 -0.001508
0.019860 0.000102 -0.000697
5.123280 -2.029362 -0.010895
0.566564 -0.017042 0.001092
2.302413 -0.288441 -0.003792
1.549274 0.064563 0.002362
3.499404 -0.981727 0.004136
1.141326 0.201723 0.000129
4.618366 0.202199 0.374453
0.037499 0.006085 0.000220
0.226317 0.289932 0.000415
3.564954 -0.948543 -0.100939
1.159145 0.217864 0.001632
5.081494 -0.728568 0.061442
2.709453 -0.571234 0.037044
4.212275 -0.443927 -0.005683
2.291721 0.555347 0.251364
0.287378 -0.113092 0.000025
0.711385 0.268667 -0.000368
0.268380 0.203322 0.011416
0.664194 0.289732 0.000693
1.537051 0.048721 -0.000070
2.705922 -0.104187 0.004873
0.670466 0.933850 0.000403
0.702071 -0.003755 -0.002853
3.361597 0.485264 0.057820
5.072144 0.616756 0.203979
0.010911 -0.006286 -0.000069
4.822554 0.159554 -0.071552
0.208176 0.011408 0.000006
1.826340 -4.903548 0.011084
0.211546 0.111054 -0.000015
1.968106 0.153934 -0.001430
0.012216 0.000015 -0.000200
0.166171 0.005119 0.000038
0.004462 0.004472 0.000003
0.120865 0.000096 0.000449
2.218474 -0.421501 0.005553
0.070474 -0.000179 0.000052
2.926561 -0.297746 0.581025
1.356882 0.631084 -0.001612
2.831417 0.656188 0.157502
0.214037 -0.078726 -0.000123
0.000786 -0.000037 -0.000224
2.402345 0.136228 0.002319
2.799633 2.764244 -0.077939
0.655178 -0.001657 0.004130
4.325011 -0.485807 0.474073
0.193808 0.000209 -0.000226
0.018174 0.011899 -0.000026
3.009809 -0.323029 0.523657
0.675627 0.225953 0.000247
0.005807 0.000002 0.000388
2.516219 -0.060618 -0.006115
0.275315 -0.044981 -0.000043
0.166804 0.189330 0.000046
4.340364 -0.231916 0.365021
2.821662 0.664493 0.001110
4.121013 0.480241 0.104173
3.882546 0.760407 0.002438
0.000470 -0.001614 0.000014
46.675339 14.517866 -0.076229
4.966831 -0.741021 0.103249
3.291020 -0.639587 0.002204
0.581496 0.001613 -0.000216
0.043291 0.000032 0.000001
4.058145 -0.762731 -0.344492
0.080078 -0.075512 0.007392
0.020320 -0.000019 -0.000011
1.622270 1.103888 0.001656
2.848443 0.023644 0.010552
3.190798 -1.637814 0.005525
5.270291 0.597518 0.093265
3.790543 -0.755850 0.004429
3.521537 -1.419210 0.001726
1.600002 0.133911 -0.000149
2.891380 0.658313 0.072510
4.708169 0.714293 0.041555
5.286538 0.662013 0.016323
0.007333 0.001016 0.000001
4.335292 -0.493674 0.469468
2.673454 -0.063745 0.000968
3.514026 0.485529 0.073602
2.925429 0.736889 0.253986
0.759326 0.010742 0.000050
0.446535 -0.096834 -0.000330
0.385016 0.015485 0.000355
2.781487 -0.525769 -0.000235
2.566130 1.027795 0.001889
4.122142 0.520750 -0.092827
0.007523 0.002199 -0.001131
2.345116 -0.113662 -0.000145
-0.002659 -0.000007 -0.001055
0.010748 0.001736 0.000702
3.529941 -0.711878 0.030954
3.308512 -0.358008 4.538754
5.068028 0.739679 0.098900
0.239197 0.038172 -0.000233
5.282705 0.607003 0.090999
4.672356 0.220515 0.340548
0.001847 -0.000918 0.000997
0.109064 -0.064448 0.000541
1.133395 -0.008525 0.000411
1.944957 -0.075225 0.004228
3.526443 -0.813141 -0.314200
0.058499 -0.102891 0.003237
2.504027 -0.501879 0.006580
0.016888 0.004952 -0.000885
0.695884 0.581469 0.000690
0.747588 0.240470 -0.000222
0.498075 0.148760 0.000303
3.317091 -0.761532 -0.000042
5.187976 0.534039 0.131804
0.235095 0.000256 0.000842
1.270178 -0.456856 -0.000501
0.063052 -0.112684 0.126129
0.040271 0.009717 -0.000311
3.941319 -0.939718 0.019078
4.300445 0.731738 0.048439
0.964281 0.010705 -0.000163
0.012827 -0.000003 -0.001756
2.947628 -0.317004 0.559127
3.315421 0.229466 0.303735
3.114699 0.812712 -0.006021
3.981705 0.784788 -0.179278
1.759546 0.081427 0.000345
0.038698 -0.000032 0.000360
46.605008 17.425592 -0.121316
0.008918 -0.000010 -0.001360
2.607224 0.088569 0.001867
3.273935 -0.703619 -0.146819
0.031073 0.043875 -0.000017
2.267504 0.537684 0.170558
3.031390 -0.650702 0.168210
0.481731 -0.143774 -0.002401
1.332378 0.023906 0.002716
3.485382 -0.705401 0.047642
4.244217 0.718171 -0.088138
0.078912 -0.035162 -0.038296
3.309975 0.272851 0.268077
0.546859 0.134636 0.001219
3.143853 0.750221 0.009430
3.065246 -0.673178 0.198509
3.008276 -0.772810 -0.000278
1.499075 0.114509 -0.001695
2.332645 0.547336 -0.000154
0.565493 -0.002176 0.004000
0.681815 0.075421 0.000058
0.297200 -0.044905 -0.001643
1.232158 -0.015816 0.000730
2.222969 0.586407 0.002381
4.864729 -0.743999 0.144699
2.714700 0.520090 0.019704
-0.001844 0.002508 0.000019
0.817252 -0.006491 -0.000771
3.113216 -0.633423 0.007130
0.000457 0.001540 -0.002705
0.103300 0.000276 -0.000994
0.493004 0.005570 0.000301
0.013205 0.003851 0.000126
2.912069 0.446903 0.058844
4.195891 -0.823559 0.007726
0.217822 0.022037 0.000053
4.235510 0.113167 0.001889
0.882786 0.010123 -0.000882
-0.004243 -0.000024 0.000100
0.153908 0.000371 -0.000272
0.139036 0.000314 0.000420
3.998002 -0.839101 0.052347
1.838475 0.038649 -0.003139
2.339599 -0.335629 0.000425
2.176333 0.158028 0.000822
2.188075 -0.518276 0.000651
-0.000852 0.001206 0.003504
3.746715 -0.624846 0.010220
4.734808 -0.868292 0.017070
0.770930 1.069710 0.000285
0.084030 -0.000129 -0.000797
0.706266 0.124029 -0.000506
2.556883 0.148684 -0.018429
3.114020 0.835475 0.004567
0.374125 0.059752 0.000592
0.137010 0.000367 0.000656
0.696035 -0.186243 0.000950
5.273003 0.663612 0.018242
5.040750 0.742126 0.111195
0.007167 -0.000009 -0.000814
4.238118 0.605920 0.212747
4.342823 0.612153 0.021475
3.570209 -0.858505 0.231158
3.211295 -0.716464 -0.163990
1.290456 -0.305722 0.000703
2.357720 0.423750 -0.001294
1.051202 0.036906 -0.022080
5.049348 0.741882 0.100253
0.439031 0.445213 0.000599
2.103513 -0.429188 -0.001331
3.395705 0.225840 0.335863