<VTKFile type='UnstructuredGrid' version='1.0' byte_order='LittleEndian' header_type='UInt64'>
<UnstructuredGrid>
<Piece NumberOfCells='500' NumberOfPoints='500'>
<Points>
<DataArray NumberOfComponents='3' type='Float32' Name='Position' format='ascii'>
321.899719 222.065914 -4.916257
1029.059357 188.209033 -16.808274
-293.072555 335.833289 -5.998217
251.328329 231.670818 -10.477602
1029.278797 232.304881 -20.074967
-252.202645 128.687250 -2.150478
1029.253611 152.748402 -21.930599
558.575098 254.345529 -5.690459
305.086409 217.271579 -5.072796
-175.731761 273.486816 -5.052868
921.816942 130.483399 -29.431506
-6.691880 28.318034 -29.641985
-218.749822 222.276889 -6.016363
69.687009 201.855077 -3.958183
524.197960 199.236345 -5.065570
589.795123 342.204306 -15.359643
710.934290 171.462117 -6.697766
853.464739 311.635496 -12.126375
-314.668716 289.375055 -6.679984
1029.193912 138.980634 -19.474711
725.254767 138.841478 -13.169945
13.855677 129.434121 -4.493096
1029.076102 228.539705 -26.569211
308.128109 372.811144 -14.792897
1029.103216 249.678682 -17.080837
1028.990499 208.533237 -16.447437
159.540313 187.956405 -23.539533
1029.136178 186.426719 -8.694585
-7.835172 298.648892 -37.512524
312.115515 348.469613 -7.169390
571.346951 210.529931 -12.297947
-9.281380 186.449595 -2.654279
567.177818 361.301386 -8.706171
771.835775 219.581401 -9.675736
246.187353 314.577478 -20.220669
604.343942 186.360999 -7.997772
1029.074164 155.183680 -27.112406
1029.321351 153.281068 -16.377951
353.107422 77.228719 -32.204462
1028.982668 142.206514 -26.628187
531.541659 33.312344 -6.254652
292.495503 169.097673 -4.035804
-9.688893 178.985875 -37.048188
509.199017 35.996474 -30.057248
598.824766 214.647541 -17.695145
-304.406374 217.783390 -37.731391
-4.151275 115.903453 -35.165133
673.891251 217.286017 -9.079710
625.540652 350.168103 -22.598386
590.905719 188.959514 -7.105457
977.905779 259.812329 -10.703542
287.195467 245.803749 -6.781384
1029.044092 190.888146 -17.070591
0.303077 298.376607 -37.290582
-491.782206 186.617090 -1.918734
760.995165 169.260894 -8.164676
206.881317 210.186062 -5.203819
-396.314365 183.321618 -32.098352
1029.281029 251.617953 -16.541149
531.385240 5.891068 -11.386387
-1.473825 174.966910 -34.054239
991.333354 257.625734 -10.259250
280.774695 361.607104 -9.591997
680.914508 182.855750 -10.747174
811.320839 222.561756 -28.816554
-14.428368 262.948836 -37.411131
496.136450 96.631885 -36.629057
1029.003818 260.121252 -19.353480
943.090869 122.718038 -7.721895
1029.030335 140.847806 -10.327024
927.579718 128.279053 -10.902057
-361.049223 183.585752 -35.001206
422.743582 386.163063 -3.664093
1029.370072 249.889205 -17.917543
93.212539 219.249319 -3.078974
505.612089 200.780226 -28.321738
672.619297 217.276127 -28.656866
1029.088630 226.583231 -26.791639
572.231419 195.908658 -8.607811
620.740261 181.789259 -13.382583
-1.478616 158.401283 -7.017960
848.916125 185.869505 -13.594457
867.392993 291.324556 -21.826977
1029.275264 140.263570 -17.033113
1029.110714 228.986199 -22.802082
73.647638 202.135116 -3.646583
541.338453 365.315696 -10.700990
1029.150350 191.275146 -16.086105
1029.304192 140.303527 -20.675616
1029.296586 152.742705 -21.728450
-0.312056 235.230723 -35.362234
1029.317875 251.504023 -16.457303
856.103972 183.903861 -14.407751
954.832272 142.551837 -29.142024
1029.213633 188.409014 -16.858498
-3.575967 235.168177 -2.667279
-76.386102 224.097249 -2.493990
552.686525 260.805838 -6.152841
775.457800 307.243512 -23.461334
887.406270 101.522259 -6.760633
1004.490548 150.704661 -29.482361
-127.664632 383.991999 -12.180897
583.787623 263.003587 -21.107330
-432.350747 176.892155 -26.660302
-390.483015 245.667703 -20.009005
1029.244989 230.300666 -9.687840
314.159999 126.001699 -24.569805
1029.318341 165.992030 -17.959244
-346.756870 251.902154 -19.754848
1028.977543 140.299234 -17.001177
1029.189046 140.141349 -19.420439
-502.033059 192.299968 -9.805945
59.353141 297.762941 -3.425702
873.199183 178.754879 -20.168047
764.058771 228.778506 -7.706512
977.824287 240.589931 -28.646438
322.745213 115.714833 -27.908471
791.165955 306.736375 -10.355351
-276.363842 343.094208 -5.505762
506.598665 138.732123 -22.323852
-51.573425 28.138880 -35.900876
547.262266 146.869634 -4.980155
759.061512 325.874728 -14.915148
1029.386622 140.349597 -17.517165
616.702033 215.395392 -8.894555
-0.485102 313.006468 -33.859917
377.639320 41.467018 -2.348081
578.496092 213.016229 -6.946302
1029.257480 229.715106 -21.899225
951.065771 125.107661 -28.255885
-117.966874 67.991555 -4.798422
-277.619562 213.642637 -5.195389
1008.875018 253.442608 -10.385832
1029.115912 138.104862 -11.754595
979.567770 176.481157 -23.746816
1029.259073 166.069571 -28.080659
666.108105 168.148706 -8.241710
718.214122 220.208776 -17.471682
422.237684 386.356569 -3.913509
-290.514025 211.795180 -3.613337
719.627113 181.945640 -20.152181
1029.216848 231.067388 -27.441933
498.600924 97.445192 -36.498822
1029.134359 189.002731 -8.993922
1028.982673 228.031097 -11.093356
467.609095 381.010294 -4.656026
504.510981 6.925377 -20.057297
1029.064718 230.128527 -9.890916
1029.261154 171.158954 -29.184869
381.472231 52.266270 -10.001146
1029.152980 136.636137 -10.985803
525.159369 331.000969 -6.207804
1029.072949 189.720784 -13.672791
1029.126679 229.823613 -11.368067
757.739221 337.325447 -22.273899
-142.755743 371.180155 -13.180558
715.129446 61.212939 -11.010491
-236.222468 180.579329 -31.976635
-24.771323 223.531684 -2.968737
-67.631845 222.589505 -5.592350
641.847357 220.752467 -12.476394
-196.653211 358.443588 -13.309313
1029.165082 249.277036 -18.436584
295.746034 255.858858 -21.551135
294.847361 148.284691 -6.492156
704.113630 216.928889 -13.639326
839.344512 296.960424 -9.993737
315.788401 182.376620 -25.860212
491.112530 3.704215 -13.131805
472.792579 8.447052 -12.258709
-204.348193 364.401725 -18.996475
1009.884657 139.029419 -27.589978
1029.312762 229.305865 -15.668280
528.206321 209.458936 -4.553309
853.138899 177.649618 -12.857975
699.146210 178.865022 -12.357589
-521.925435 274.720588 -37.121699
788.898625 176.381046 -19.465787
671.762885 186.444119 -9.610322
1029.259166 229.986926 -17.220021
733.765840 182.159302 -27.359710
603.184339 344.625726 -25.365600
725.649021 168.274640 -8.060591
713.818574 342.077333 -10.131629
90.080826 179.163019 -26.488560
1016.794509 267.628641 -23.610926
942.955151 266.500266 -23.153042
246.387357 308.978678 -16.159348
-275.344554 176.080607 -19.891211
-266.355154 293.483890 -3.384812
384.520400 270.583159 -10.780044
1029.139103 188.001014 -24.091368
780.454289 145.092440 -12.345104
600.524341 214.507935 -28.470081
23.851548 299.751658 -2.731625
1029.246652 152.097065 -21.274371
1029.238727 166.185289 -18.220476
527.308993 5.984855 -12.252243
1029.317852 166.310171 -11.196974
955.605227 126.808248 -28.117685
1028.978325 226.681346 -19.098767
1029.070636 229.001683 -26.946571
18.445026 305.433730 -34.893055
787.827938 97.771562 -26.443284
458.251535 4.721930 -6.650118
1029.134247 165.425647 -17.916420
-14.123416 127.292590 -4.862013
646.523568 336.134647 -10.247948
1029.191202 138.906774 -12.100933
-277.935105 181.537293 -2.468641
637.142187 214.644429 -15.905035
1028.987540 207.207378 -15.083185
773.551131 306.106639 -18.677642
1029.083419 261.565138 -18.628778
985.057728 133.527462 -26.834750
1029.125480 163.915666 -20.865933
1013.192250 183.787370 -12.128132
590.666916 214.329967 -28.389355
845.711366 179.571421 -10.986313
-68.583685 19.171612 -34.379280
1029.130325 227.908705 -11.363294
-98.098756 179.477224 -29.524981
-113.630439 61.034471 -34.207055
1028.994581 191.539402 -20.807746
1029.089074 228.582486 -11.134421
810.119252 81.825052 -11.829354
666.697743 179.784002 -26.001751
75.363256 219.633653 -35.960646
473.761605 5.696339 -19.984538
640.901667 164.912936 -8.043173
967.841608 144.344138 -27.819797
134.290596 201.470178 -3.358713
103.221409 209.751053 -36.042600
1029.130825 162.909080 -15.085360
632.927641 40.702520 -9.518578
126.415994 241.682575 -5.352703
1029.138655 191.579951 -20.417899
285.671636 217.071778 -33.084014
373.103438 240.453930 -12.788969
539.820479 361.941672 -9.642106
11.481958 136.505929 -34.734368
600.857462 184.510292 -7.464670
995.406071 176.096481 -26.444610
933.190398 175.761456 -8.916542
1029.088616 227.990706 -18.525192
-13.312704 217.122386 -28.864022
572.975760 193.976127 -29.969879
484.615149 371.658272 -7.670373
543.219789 35.156992 -6.646639
-50.364350 120.101523 -34.189902
686.684306 219.595537 -8.141682
820.465838 218.230954 -16.679613
819.092810 323.295214 -15.012263
737.392255 340.552392 -17.481294
1029.020443 260.195748 -17.082613
8.496085 210.295735 -4.900893
313.035286 134.201860 -25.257076
-218.745567 362.511856 -30.947066
-160.017797 319.044599 -36.941064
516.527278 195.785088 -6.432419
318.446235 188.572566 -17.935090
145.923197 194.699161 -3.494913
1028.992364 140.724015 -18.226469
719.798459 188.776991 -14.377616
1029.288175 250.532170 -11.240318
1028.982169 140.578835 -8.523235
-16.411099 201.119986 -36.826378
-498.855806 188.743952 -24.712437
1028.991480 184.793799 -26.995024
-206.709370 272.856669 -4.190277
1029.263509 251.378450 -21.648380
-405.716539 126.110480 -35.834676
1029.055936 181.494904 -18.997324
-53.293559 190.987766 -12.713680
1029.168282 189.604127 -16.148881
-233.274845 175.279169 -26.219707
896.808038 179.109941 -25.879878
763.247657 144.590588 -19.743610
1029.062033 251.332961 -17.754174
661.240561 220.520911 -18.988604
1029.058731 251.612451 -21.507725
1029.209896 251.530546 -18.765869
1009.384131 138.210354 -26.899523
815.211048 312.780338 -21.836307
675.392925 170.255677 -7.652522
-100.421894 108.969599 -34.157057
948.011646 125.357974 -33.281127
14.473790 320.105351 -4.300887
1029.052570 231.238678 -23.593649
0.795653 270.235332 -31.709362
530.326481 317.805438 -6.273086
1029.019086 186.784368 -8.920433
1029.062089 229.606706 -11.842059
-492.503148 185.858334 -3.181273
-67.090965 33.353886 -33.854194
630.510507 184.921449 -29.401392
1029.055737 139.105929 -11.640209
-160.787616 117.135214 -31.694734
780.608107 176.904525 -20.253028
-313.048036 211.636090 -4.645501
-195.618589 217.091085 -12.611117
1028.996143 151.715862 -17.273462
672.197672 257.169407 -6.966737
411.591621 245.039275 -3.410562
562.955755 199.118185 -7.138640
1029.256785 153.702561 -22.613375
1029.274629 189.295571 -19.419725
281.736502 353.201012 -20.332789
-90.273350 63.806186 -33.445817
649.805661 339.561711 -24.043742
1029.235200 153.879772 -27.568629
-344.669051 211.723277 -36.690463
-54.548024 360.729376 -26.745259
1029.273908 151.732683 -17.452964
1029.014351 139.407205 -11.818104
-257.598423 214.845664 -4.301085
677.975805 163.093734 -32.219453
143.223773 183.642628 -3.867937
1028.980649 249.835231 -21.175183
640.769956 186.840712 -11.350721
1018.290607 232.758578 -28.089851
1029.080799 230.197874 -9.454699
571.559525 209.658180 -30.733616
309.716264 366.761082 -9.519871
4.526258 212.675367 -35.458543
1029.008500 206.564596 -15.792315
207.924604 185.307138 -3.487053
735.391813 67.869870 -27.774600
1029.069269 165.176413 -18.524279
790.293612 177.052259 -11.131332
-95.092579 221.222796 -2.941191
-195.550117 174.985579 -5.460898
453.522713 4.408437 -23.524714
1029.220334 140.786220 -22.054353
-6.248943 232.288600 -37.699333
1029.175277 141.288491 -25.554240
313.708142 173.327850 -33.421496
603.204666 266.384299 -34.789527
282.636562 182.392807 -6.156341
1029.228811 229.056026 -21.423484
1029.263211 229.727649 -8.828450
-180.483224 219.847005 -32.220025
1029.255636 140.847097 -10.347196
472.432693 377.980720 -17.529879
-37.912321 87.227956 -34.154333
1014.027669 185.449726 -22.351871
-32.994993 334.424380 -2.531317
265.655725 237.915944 -19.559076
313.323321 136.958344 -31.410403
440.577291 73.254667 -6.312266
1029.146176 187.848913 -9.040993
1012.215449 139.268467 -27.172176
-351.240397 321.553424 -5.807843
674.975713 170.769039 -15.605738
133.639197 215.923675 -5.264700
-292.761401 218.399458 -26.297365
282.868296 52.052695 -8.341513
1029.083022 262.773429 -19.497108
681.768437 328.034430 -8.416135
592.998569 367.792407 -26.121454
1029.137774 227.226450 -10.712844
1029.144133 141.824809 -12.094427
495.804014 370.513856 -7.524898
1029.072346 230.843770 -24.585391
-30.577939 25.247743 -31.725261
488.874734 4.778296 -11.413456
-91.707343 211.894042 -27.910785
159.613426 200.472595 -35.851370
-233.141553 124.463532 -26.202204
613.641141 118.308921 -5.907851
-39.330714 210.811169 -28.633551
-216.953638 219.944958 -5.663388
1029.220458 185.847851 -11.251454
584.691080 342.540201 -23.554982
1029.129728 164.701498 -20.667179
56.582885 220.900325 -22.158305
387.737866 289.159658 -6.599485
554.988505 64.925442 -6.813938
849.287063 176.939963 -9.137644
1029.097936 262.061277 -16.866182
1029.292222 139.341657 -20.537809
1029.028994 140.404660 -8.938870
454.905217 6.764486 -5.949460
1029.005844 140.255329 -9.204981
-501.550475 193.536619 -17.035376
422.364659 386.234165 -5.736371
1029.087163 227.049554 -11.271518
602.217558 187.478274 -19.337150
609.896603 386.085430 -18.161104
-155.434631 20.020855 -11.419398
574.929967 342.679519 -25.339532
-397.740135 211.817145 -38.068401
1029.146218 191.360374 -20.366622
523.520067 153.210774 -9.168028
1028.984297 152.167014 -15.410153
165.557390 191.710292 -34.349093
769.807540 71.752983 -6.803281
-37.284482 380.880443 -34.738398
949.995850 176.416801 -24.118892
-256.073698 178.065628 -5.502960
602.781737 214.927991 -9.301961
-335.427710 73.370596 -26.452407
484.413435 45.588154 -20.507596
-28.839256 367.860082 -35.996519
996.180187 256.541530 -22.857105
841.766301 90.752907 -7.712822
323.449239 110.533279 -4.934352
1029.189180 152.203793 -9.786901
681.519508 182.846292 -10.617098
823.824495 151.393666 -19.124485
512.805122 149.313112 -6.938703
967.341941 144.374367 -27.914307
626.925922 36.874849 -6.933989
-258.728703 349.098719 -12.518314
1028.992859 189.529076 -21.214293
559.554203 40.781939 -28.491093
1029.122687 189.627835 -12.980992
302.173551 268.930877 -11.559450
-138.745352 215.186821 -11.282164
1029.067094 190.358882 -21.601804
940.415791 241.005523 -26.388827
0.010500 116.642846 -35.696881
368.035872 341.029922 -6.560578
876.563642 186.912075 -20.319288
578.016055 168.069472 -7.233965
796.106952 176.738649 -23.636363
1029.118563 166.532241 -28.691753
310.571834 238.436134 -5.847804
1029.114841 139.297521 -11.567960
394.248467 251.609728 -3.973217
632.255982 169.403626 -23.408451
446.680010 3.301228 -6.586930
1009.732857 206.782522 -15.711688
527.148996 57.878816 -19.429069
-501.737674 193.752266 -17.473372
29.934311 226.446238 -36.132494
980.724538 176.204526 -9.733147
1029.163817 184.148452 -21.974278
998.268449 253.141205 -10.518209
-24.241724 197.183389 -35.458867
1029.328978 136.843542 -18.881703
246.777791 236.220494 -31.595917
1029.222021 229.310936 -11.098716
1029.172426 140.413768 -21.018412
-108.976372 181.704102 -22.031521
1029.118423 167.132526 -29.081801
775.097588 140.956708 -7.389367
678.562476 58.190619 -6.583570
1029.236015 251.014534 -17.909152
0.005993 239.276471 -37.008894
89.859128 227.429359 -3.177089
1028.977966 139.590846 -10.513834
965.627510 145.603475 -27.908394
375.531119 240.322086 -19.715579
-0.024167 240.997557 -36.845778
765.473842 221.611688 -28.843310
273.545612 199.260375 -6.375824
1029.122752 191.332256 -15.803695
1029.022018 152.098673 -9.721617
619.400581 161.084910 -8.120416
-200.954006 37.087349 -31.818357
757.355083 312.473296 -23.942526
643.928904 177.613683 -12.233398
84.507674 216.733616 -35.427808
-255.461614 218.369513 -6.049810
989.448180 132.133403 -10.453147
551.012657 35.625369 -6.195912
1029.016906 187.725508 -9.274138
203.012630 196.326432 -35.066458
1029.281845 164.317919 -10.568704
-8.261627 298.825365 -37.639384
532.524754 312.375852 -6.155863
-22.846983 355.184039 -35.901400
261.978065 157.802766 -5.191235
400.884835 273.474580 -5.355285
991.864467 132.803908 -8.252790
186.843069 184.412887 -3.855622
571.560133 337.501119 -24.038861
615.966080 215.571824 -8.459786
-214.003383 213.570738 -19.333400
-10.078233 332.950037 -37.320443
923.299551 176.195552 -8.691622
3.179069 205.192891 -3.163719
852.891189 287.897518 -23.149027
473.960619 391.688735 -21.195737
1029.182799 226.565878 -26.855878
-60.605876 209.702758 -29.051606
520.136637 365.534561 -24.033140
94.159166 208.906334 -28.985505
592.792419 168.175707 -7.021146
917.504129 295.851039 -24.696035
938.372291 289.273899 -21.948460
298.962488 368.140823 -27.545978
89.854477 177.924114 -27.980174
342.730901 17.068036 -10.050309
1029.072314 141.391280 -11.738849
-12.076051 147.929547 -10.206772
706.422330 62.610820 -6.122457
285.817708 260.028342 -10.507245
673.461140 216.685569 -17.312199
</DataArray>
</Points>
<PointData>
<DataArray NumberOfComponents='1' type='Int32' Name='ParticleType' format='ascii'>
1
1
1
1
1
1
1
1
1
1
1
1
1
1
1
1
1
1
1
1
1
1
1
1
1
1
1
1
1
1
1
1
1
1
1
1
1
1
1
1
1
1
1
1
1
1
1
1
1
1
1
1
1
1
1
1
1
1
1
1
1
1
1
1
1
1
1
1
1
1
1
1
1
1
1
1
1
1
1
1
1
1
1
1
1
1
1
1
1
1
1
1
1
1
1
1
1
1
1
1
1
1
1
1
1
1
1
1
1
1
1
1
1
1
1
1
1
1
1
1
1
1
1
1
1
1
1
1
1
1
1
1
1
1
1
1
1
1
1
1
1
1
1
1
1
1
1
1
1
1
1
1
1
1
1
1
1
1
1
1
1
1
1
1
1
1
1
1
1
1
1
1
1
1
1
1
1
1
1
1
1
1
1
1
1
1
1
1
1
1
1
1
1
1
1
1
1
1
1
1
1
1
1
1
1
1
1
1
1
1
1
1
1
1
1
1
1
1
1
1
1
1
1
1
1
1
1
1
1
1
1
1
1
1
1
1
1
1
1
1
1
1
1
1
1
1
1
1
1
1
1
1
1
1
1
1
1
1
1
1
1
1
1
1
1
1
1
1
1
1
1
1
1
1
1
1
1
1
1
1
1
1
1
1
1
1
1
1
1
1
1
1
1
1
1
1
1
1
1
1
1
1
1
1
1
1
1
1
1
1
1
1
1
1
1
1
1
1
1
1
1
1
1
1
1
1
1
1
1
1
1
1
1
1
1
1
1
1
1
1
1
1
1
1
1
1
1
1
1
1
1
1
1
1
1
1
1
1
1
1
1
1
1
1
1
1
1
1
1
1
1
1
1
1
1
1
1
1
1
1
1
1
1
1
1
1
1
1
1
1
1
1
1
1
1
1
1
1
1
1
1
1
1
1
1
1
1
1
1
1
1
1
1
1
1
1
1
1
1
1
1
1
1
1
1
1
1
1
1
1
1
1
1
1
1
1
1
1
1
1
1
1
1
1
1
1
1
1
1
1
1
1
1
1
1
1
1
1
1
1
1
1
1
1
1
1
1
1
1
1
1
1
1
1
1
1
1
1
1
1
1
1
1
1
1
1
1
1
1
1
1
1
1
1
1
1
1
1
1
1
</DataArray>
<DataArray NumberOfComponents='1' type='Int32' Name='ParticleID' format='ascii'>
0
1
2
3
4
5
6
7
8
9
10
11
12
13
14
15
16
17
18
19
20
21
22
23
24
25
26
27
28
29
30
31
32
33
34
35
36
37
38
39
40
41
42
43
44
45
46
47
48
49
50
51
52
53
54
55
56
57
58
59
60
61
62
63
64
65
66
67
68
69
70
71
72
73
74
75
76
77
78
79
80
81
82
83
84
85
86
87
88
89
90
91
92
93
94
95
96
97
98
99
100
101
102
103
104
105
106
107
108
109
110
111
112
113
114
115
116
117
118
119
120
121
122
123
124
125
126
127
128
129
130
131
132
133
134
135
136
137
138
139
140
141
142
143
144
145
146
147
148
149
150
151
152
153
154
155
156
157
158
159
160
161
162
163
164
165
166
167
168
169
170
171
172
173
174
175
176
177
178
179
180
181
182
183
184
185
186
187
188
189
190
191
192
193
194
195
196
197
198
199
200
201
202
203
204
205
206
207
208
209
210
211
212
213
214
215
216
217
218
219
220
221
222
223
224
225
226
227
228
229
230
231
232
233
234
235
236
237
238
239
240
241
242
243
244
245
246
247
248
249
250
251
252
253
254
255
256
257
258
259
260
261
262
263
264
265
266
267
268
269
270
271
272
273
274
275
276
277
278
279
280
281
282
283
284
285
286
287
288
289
290
291
292
293
294
295
296
297
298
299
300
301
302
303
304
305
306
307
308
309
310
311
312
313
314
315
316
317
318
319
320
321
322
323
324
325
326
327
328
329
330
331
332
333
334
335
336
337
338
339
340
341
342
343
344
345
346
347
348
349
350
351
352
353
354
355
356
357
358
359
360
361
362
363
364
365
366
367
368
369
370
371
372
373
374
375
376
377
378
379
380
381
382
383
384
385
386
387
388
389
390
391
392
393
394
395
396
397
398
399
400
401
402
403
404
405
406
407
408
409
410
411
412
413
414
415
416
417
418
419
420
421
422
423
424
425
426
427
428
429
430
431
432
433
434
435
436
437
438
439
440
441
442
443
444
445
446
447
448
449
450
451
452
453
454
455
456
457
458
459
460
461
462
463
464
465
466
467
468
469
470
471
472
473
474
475
476
477
478
479
480
481
482
483
484
485
486
487
488
489
490
491
492
493
494
495
496
497
498
499
</DataArray>
<DataArray NumberOfComponents='1' type='Int8' Name='IsActive' format='ascii'>
1
0
1
1
0
1
0
1
1
1
1
1
1
1
1
1
1
1
1
0
1
1
0
1
0
0
1
0
1
1
1
1
1
1
1
1
0
0
1
0
1
1
1
1
1
1
1
1
1
1
1
1
0
1
1
1
1
1
0
1
1
1
1
1
1
1
1
0
1
0
1
1
0
0
1
1
1
0
1
1
1
1
1
0
0
1
1
0
0
0
1
0
1
1
0
1
1
1
1
1
1
1
1
1
1
0
1
0
1
0
0
1
1
1
1
1
1
1
1
1
1
1
1
0
1
1
0
1
0
1
1
1
1
0
1
0
1
1
0
1
1
0
1
0
0
1
1
0
0
0
0
1
0
0
1
1
1
1
1
1
1
1
0
1
1
1
1
1
1
1
1
1
0
1
1
1
1
1
1
0
1
1
1
1
1
1
1
1
1
1
1
0
1
1
1
0
0
1
0
1
0
0
1
1
1
0
1
1
0
1
1
0
1
0
1
0
1
1
1
1
0
1
1
0
0
1
1
1
1
1
1
1
1
0
1
1
0
1
1
1
1
1
1
1
0
1
1
1
1
1
1
1
1
1
0
1
1
1
1
1
1
1
0
1
0
0
1
1
0
1
0
1
0
1
0
1
1
1
0
1
0
0
1
1
1
1
1
1
0
1
1
0
0
1
1
1
0
1
1
1
1
0
1
0
1
0
0
1
1
1
0
1
1
0
0
1
1
1
0
1
1
0
1
1
1
0
1
1
0
1
1
1
1
0
1
0
1
1
1
0
0
1
0
1
1
1
1
1
1
1
0
1
1
1
1
1
1
0
1
1
0
0
1
0
1
1
1
1
1
1
1
1
0
1
0
1
1
1
1
0
0
0
1
0
1
0
0
1
1
1
1
1
0
1
0
1
1
1
1
1
1
1
1
1
1
1
1
0
1
1
1
1
1
1
0
1
0
1
1
0
1
1
1
1
1
1
0
1
0
1
1
1
1
1
1
1
1
0
1
1
0
1
0
0
1
0
1
1
0
1
1
0
1
1
1
1
1
0
0
1
1
1
1
1
1
1
1
0
1
0
1
1
1
1
0
1
1
1
1
1
1
1
1
1
1
0
1
1
1
1
1
1
1
1
1
0
1
1
1
1
</DataArray>
<DataArray NumberOfComponents='1' type='Int32' Name='ParticleTetID' format='ascii'>
40447
-61515
7958
25995
-58962
6768
-66558
76051
25958
10855
75864
20390
7400
44172
62858
71054
58683
60160
8643
-66554
62140
30492
-58961
33270
-64916
-70586
39196
-61512
12904
29469
59711
12510
69537
63005
30393
65901
-66561
-66555
50918
-66557
57223
32618
2932
67694
71431
9448
14182
62915
78778
62769
70331
30081
-61515
29086
19262
77079
44065
16034
-64917
61403
2824
79151
30063
63131
62958
6225
52162
-64917
56415
-66551
76847
34
-112396
-64916
35084
64830
62924
-58965
74793
61224
12351
68838
66789
-66554
-58961
44120
79169
-61515
-66557
-66558
6262
-64917
68838
67532
-61515
6247
22808
66151
64305
72003
76190
10085
73217
3808
6111
-58955
25515
-59786
7225
-66554
-66554
2273
27810
58473
75101
72769
44960
64283
7994
65745
15479
74612
70944
-66554
61205
11483
-146594
75045
-58962
58296
10586
7417
76036
-66588
58493
-59791
71913
63026
-112396
7436
63189
-58965
52126
-61512
-58955
53010
69885
-58955
-59791
-156163
-66588
71173
-61515
-58955
73593
2344
58252
7303
14060
24176
62681
7816
-64916
27623
38035
62898
65001
43697
52942
52403
9853
75234
-58958
64892
68836
63113
10690
65330
65290
-58958
65282
77699
60303
68405
98736
68103
79245
29670
7333
6698
82680
-61518
62122
67424
25200
-66558
-59786
61402
-59783
58296
-58958
-58965
24515
62470
53245
-59786
10476
67649
-66551
7328
62684
-72207
64303
-68102
73758
-59788
73481
62762
68909
5435
-58955
15674
24207
-61518
-58955
73354
65296
33803
52405
58234
65984
42500
48419
-59785
58900
90970
-61518
30415
82933
79169
30507
77925
76996
59459
-58958
6240
74804
52079
57223
141
65129
62954
56760
70783
-64917
32293
45029
7952
7037
66925
45080
38682
-66554
63186
-64913
-66551
19565
19217
-61521
6392
-64920
2213
-61514
21658
-61515
9316
67853
62054
-64916
62990
-64920
-64916
75234
56763
71913
12597
56425
45631
-58961
30488
56521
-61512
-58955
19262
1221
72968
-66551
8815
65331
7454
7493
-66555
61707
-126563
56739
-66558
-61514
30069
15315
57395
-66561
12976
2316
-66555
-66551
7544
56515
38684
-64920
72689
58962
-58955
59720
33268
32308
-72207
39114
59538
-59786
65325
22860
9289
53255
-66557
6262
-66557
51027
78641
36470
-58962
-58955
7537
-66551
53018
18737
73485
12276
31723
51008
87483
-61512
75236
8030
71918
91668
7445
28983
-68102
63725
68338
-58955
-66551
51915
-58961
18553
52942
7104
26511
6922
66871
14522
7400
-61511
60995
-59788
30825
82961
75729
68907
-68102
-66557
-66551
53245
-66551
2276
-112399
-58955
65906
56942
14026
71559
15442
-61518
74397
-66555
39201
71157
1365
62793
7273
67415
11512
52677
16019
79157
60771
43597
-66552
63131
62072
69105
65984
75495
7853
-61518
71868
-61511
25259
17033
-61518
78868
30868
39205
61119
73767
65349
-59791
32635
-66551
121522
57124
53263
59856
56725
2276
31373
58487
-61518
79689
665
-66591
27139
-58955
-66557
12087
-59791
64173
61561
-64916
30454
31500
-66551
67206
82989
5884
65208
36757
-61515
-66552
74597
7718
64325
66226
31517
7544
73750
78751
-61512
39131
-59783
12904
56521
12221
93734
-127033
78737
25382
59626
61205
7405
13931
65813
35048
60797
53001
-58965
625
71939
31712
64947
71489
76671
34572
98736
25349
-66551
5835
58250
29973
62917
</DataArray>
<DataArray NumberOfComponents='3' type='Float32' Name='vels' format='ascii'>
0.760795 0.412580 -0.001298
2.941750 0.743093 0.251364
0.007841 0.002290 -0.000839
2.797840 2.197390 -0.003270
4.011166 -0.808442 0.007605
0.336419 -0.051009 -0.000107
5.291425 0.658114 0.015048
0.966026 0.137170 0.000851
0.949173 0.135672 0.003616
0.491778 0.071837 -0.000276
2.348047 1.641958 0.037878
0.393078 0.221734 0.001041
0.005655 0.000024 -0.000699
2.489346 0.151506 0.002294
0.175999 -0.004600 -0.000311
2.156744 0.091266 -0.000758
1.573968 0.077609 -0.002460
3.337803 -0.824943 0.006870
1.741580 0.324718 -0.000365
4.618366 0.202199 0.374453
0.090745 0.014651 0.000474
0.583400 0.769462 -0.000725
3.564954 -0.948543 -0.100939
1.000303 0.225999 0.000616
5.081494 -0.728568 0.061442
2.709453 -0.571234 0.037044
10.509636 -0.498299 -0.010652
2.291721 0.555347 0.251364
0.039251 -0.015477 0.000003
0.695139 0.235030 -0.000374
0.008711 0.008131 0.001287
0.589995 0.290050 -0.000142
1.404465 0.190534 -0.000419
0.186326 -0.000246 0.001279
0.728948 1.297203 -0.000422
0.619437 -0.002482 -0.002726
3.361597 0.485264 0.057820
5.072144 0.616756 0.203979
0.021338 -0.014567 -0.000105
4.822554 0.159554 -0.071552
1.214580 0.081758 -0.000483
1.153795 -3.053061 -0.007011
0.115455 0.061275 -0.000007
2.232196 0.439808 -0.001655
0.788712 0.008092 0.000439
0.157591 0.004289 -0.000025
0.000825 0.000601 0.000000
0.010046 0.000017 0.000708
2.195235 -0.203538 0.000530
0.072847 -0.000117 -0.000106
3.062767 -0.604985 0.000581
1.456622 0.744640 -0.000221
2.831417 0.656188 0.157502
0.034344 -0.012804 -0.000017
0.003258 -0.000633 -0.000188
2.222240 0.169755 0.001771
4.154244 1.443847 0.025084
0.699299 -0.001486 0.004159
4.325011 -0.485807 0.474073
0.022666 -0.000017 -0.000955
0.023681 0.015717 -0.000035
3.807536 -0.758229 -0.001005
0.606158 0.270856 -0.000286
0.069427 0.000049 0.000322
2.265004 -0.058845 -0.007922
1.299585 -0.173413 0.000472
0.019521 0.025209 -0.000006
4.340364 -0.231916 0.365021
2.511032 0.909089 0.000114
4.121013 0.480241 0.104173
2.525379 1.456629 -0.011806
0.000477 -0.001615 0.000013
46.675339 14.517866 -0.076229
4.966831 -0.741021 0.103249
1.618439 -1.329129 0.004025
0.732098 -0.323589 0.001455
0.003350 0.000002 0.000053
4.058145 -0.762731 -0.344492
0.107423 -0.092879 0.011881
0.021786 -0.000017 -0.000051
1.217426 0.958940 0.000750
2.171567 0.035552 0.002541
3.427969 -0.685028 0.000256
5.270291 0.597518 0.093265
3.790543 -0.755850 0.004429
2.424287 0.186869 -0.000307
1.430167 0.087663 0.001127
2.891380 0.658313 0.072510
4.708169 0.714293 0.041555
5.286538 0.662013 0.016323
0.013255 0.001462 0.000002
4.335292 -0.493674 0.469468
2.657210 0.061804 0.003804
3.580266 0.731754 -0.000380
2.925429 0.736889 0.253986
1.176480 0.074948 -0.000480
0.656997 -0.113659 -0.001169
0.628250 0.063785 -0.000023
2.160990 -0.396023 -0.002194
2.814753 0.678004 -0.001556
3.939468 0.682666 0.020304
0.094296 0.027259 -0.000373
2.184415 0.002861 0.000404
0.000183 -0.000017 -0.001049
0.014294 0.002291 0.000755
3.529941 -0.711878 0.030954
2.324370 -7.027244 0.016231
5.068028 0.739679 0.098900
0.242062 0.038621 0.000118
5.282705 0.607003 0.090999
4.672356 0.220515 0.340548
0.001276 0.000670 0.000823
0.662579 -0.284843 -0.000175
2.694929 0.073072 -0.012614
1.852394 -0.071528 0.002824
3.020076 -0.473509 0.000612
0.015077 -0.031420 0.001668
1.753317 -0.318244 0.002804
0.146996 0.042903 -0.000209
0.496170 0.816604 0.000685
0.369925 0.098966 -0.000755
0.127081 0.075947 -0.000220
2.948355 -0.661246 0.000685
5.187976 0.534039 0.131804
0.043148 0.000099 0.000269
0.121947 -0.060201 0.000103
0.063052 -0.112684 0.126129
0.042708 0.010369 -0.000075
3.941319 -0.939718 0.019078
3.404417 1.063601 0.001680
0.865133 -0.109298 -0.000707
0.548747 0.005479 -0.001261
4.070790 -0.795646 -0.019821
3.315421 0.229466 0.303735
3.688906 0.311556 0.002698
3.981705 0.784788 -0.179278
1.633332 0.071980 -0.000169
0.391215 -0.001265 -0.000971
46.605008 17.425592 -0.121316
0.634183 0.008932 -0.001618
1.872761 0.036457 0.001049
3.273935 -0.703619 -0.146819
0.108762 0.158152 -0.000052
2.267504 0.537684 0.170558
3.031390 -0.650702 0.168210
4.560447 -1.100275 -0.868019
1.441923 0.042596 0.004829
3.485382 -0.705401 0.047642
4.244217 0.718171 -0.088138
0.078912 -0.035162 -0.038296
3.309975 0.272851 0.268077
0.578804 0.116134 -0.001357
3.143853 0.750221 0.009430
3.065246 -0.673178 0.198509
2.959108 -0.733593 -0.000113
1.326986 0.262389 -0.005259
2.514332 0.603883 0.003115
0.540258 -0.002755 0.001557
0.621409 0.066575 0.000179
0.739175 -0.144601 -0.001971
0.042127 0.000010 0.000093
0.015162 0.004378 -0.000742
4.864729 -0.743999 0.144699
2.374964 1.028616 -0.006569
1.903611 -5.573919 -0.018319
0.764032 -0.007020 0.000880
2.778170 -0.539352 -0.000003
0.000995 0.003179 -0.002567
0.101349 0.000271 -0.001018
0.156105 -0.000082 -0.002023
1.986788 0.543531 0.000449
4.304377 0.797328 0.034937
4.195891 -0.823559 0.007726
0.405073 -0.053210 -0.000062
0.445965 0.002497 0.001520
0.016600 0.000049 0.000483
-0.001381 0.000287 0.000116
2.943853 0.117457 0.002437
1.776326 0.046088 -0.002251
3.998002 -0.839101 0.052347
1.518218 0.028898 -0.004236
2.317979 -0.034455 -0.000284
1.962033 0.108314 -0.000012
2.111888 -0.499214 0.000650
0.000736 0.000305 0.004213
4.179979 -0.853665 0.002143
3.666410 -1.017620 -0.004477
0.802391 1.345947 -0.000107
0.083061 -0.000152 -0.000455
0.170881 0.028032 -0.000631
6.201485 -1.227967 5.486005
3.114020 0.835475 0.004567
0.622102 0.097712 0.001380
0.022750 0.000051 0.000223
0.708170 -0.194643 -0.000009
5.273003 0.663612 0.018242
5.040750 0.742126 0.111195
0.502881 0.004124 0.000802
4.238118 0.605920 0.212747
3.491181 0.994675 -0.002514
3.570209 -0.858505 0.231158
3.211295 -0.716464 -0.163990
1.147334 -0.347993 0.000241
0.153714 0.025461 -0.000363
0.000635 0.000099 -0.000607
5.049348 0.741882 0.100253
0.666841 0.644711 0.000188
1.763214 -0.306860 -0.002428
3.395705 0.225840 0.335863
0.862610 -0.013409 0.000548