<VTKFile type='UnstructuredGrid' version='1.0' byte_order='LittleEndian' header_type='UInt64'>
<UnstructuredGrid>
<Piece NumberOfCells='500' NumberOfPoints='500'>
<Points>
<DataArray NumberOfComponents='3' type='Float32' Name='Position' format='ascii'>
511.350593 191.044830 -4.677803
1029.059357 188.209033 -16.808274
-224.070353 355.199964 -6.059858
558.762345 260.668055 -6.418947
1029.278797 232.304881 -20.074967
-188.525064 119.247511 -2.128918
1029.253611 152.748402 -21.930599
738.677091 246.536316 -5.738080
504.570464 198.305385 -4.453297
-110.026969 281.650905 -4.973788
1029.136333 154.676584 -29.201451
34.614300 92.587755 -29.802683
-165.386478 223.044231 -6.063319
529.811441 82.995690 -4.443898
575.689704 214.987410 -4.322092
1029.359902 252.147987 -15.006536
830.232063 176.349647 -6.573289
1029.087137 262.783777 -11.868301
-189.372707 311.633986 -6.832204
1029.193912 138.980634 -19.474711
803.879921 150.528482 -13.079807
306.532270 89.102699 -3.626433
1029.076102 228.539705 -26.569211
460.842010 396.394483 -3.909817
1029.103216 249.678682 -17.080837
1028.990499 208.533237 -16.447437
690.376501 168.186289 -17.518935
1029.136178 186.426719 -8.694585
18.053782 289.434088 -37.562451
628.479026 365.703747 -7.580690
595.844475 215.330490 -12.261324
296.405140 171.729064 -2.601647
1029.231420 262.000992 -8.732897
953.680488 218.654404 -9.894041
422.306524 386.274159 -3.543799
752.168538 187.854005 -7.863472
1029.074164 155.183680 -27.112406
1029.321351 153.281068 -16.377951
471.101434 97.694409 -32.460685
1028.982668 142.206514 -26.628187
745.351616 64.938787 -6.206645
549.253879 95.502869 -2.869800
45.446843 201.609001 -36.993571
1029.147816 142.387907 -29.713177
678.091120 214.415136 -17.557882
-271.838486 218.260407 -37.610262
0.554129 120.853901 -35.158051
791.102171 215.375242 -9.032281
1029.339088 256.934836 -22.392138
624.978345 188.896077 -6.932958
1029.096555 251.048780 -9.627166
603.771774 256.257676 -5.681490
1029.044092 190.888146 -17.070591
95.011829 252.247836 -37.240602
-491.807875 186.617812 -1.963283
1029.140656 185.673421 -7.749712
337.417927 305.924591 -5.510625
-277.230703 182.195177 -31.482732
1029.281029 251.617953 -16.541149
610.579378 6.503345 -11.668496
18.611968 184.801667 -33.977764
1029.144067 251.298274 -9.433218
538.605537 387.784372 -8.448088
778.301246 184.382668 -10.679394
1029.099325 207.296483 -29.207397
7.794483 259.372728 -37.420301
499.995354 101.797953 -36.578476
1029.003818 260.121252 -19.353480
1029.219105 141.565174 -7.227381
1029.030335 140.847806 -10.327024
1029.210581 151.177371 -10.058554
-313.181518 182.633743 -34.896264
422.743582 386.163063 -3.664093
1029.370072 249.889205 -17.917543
444.114441 235.558397 -0.706959
568.752935 204.218075 -30.045700
772.838490 215.804672 -28.820687
1029.088630 226.583231 -26.791639
609.159442 191.422387 -8.200728
622.913662 181.820898 -13.347021
536.859825 58.273600 -6.200508
1029.075219 199.084609 -13.594524
1029.306689 250.607125 -21.757990
1029.275264 140.263570 -17.033113
1029.110714 228.986199 -22.802082
514.023625 76.433163 -4.269625
1029.118126 264.933374 -10.231840
1029.150350 191.275146 -16.086105
1029.304192 140.303527 -20.675616
1029.296586 152.742705 -21.728450
107.344416 208.038892 -35.205013
1029.317875 251.504023 -16.457303
1029.142010 196.584875 -14.344229
1029.292726 155.217574 -29.018318
1029.213633 188.409014 -16.858498
307.487550 217.507808 -2.610787
67.068419 224.320672 -2.468893
652.423304 258.997073 -6.201216
1029.337316 249.376128 -23.538960
1029.006290 140.497051 -6.606818
1029.101994 154.322595 -29.456101
-72.536350 385.688690 -12.135984
1029.023898 231.951962 -20.916878
-432.598277 176.898285 -26.657586
-388.680402 246.040083 -20.000850
1029.244989 230.300666 -9.687840
728.916805 173.687719 -20.536808
1029.318341 165.992030 -17.959244
-303.293289 258.828552 -19.864946
1028.977543 140.299234 -17.001177
1029.189046 140.141349 -19.420439
-501.822845 192.408268 -9.679098
240.851694 266.184641 -3.309198
1029.088515 191.145182 -20.070877
1029.119364 214.611647 -7.296110
1029.162892 231.219450 -28.952026
364.864059 73.565413 -19.556977
1029.069190 250.884586 -9.429735
-220.005675 359.007486 -5.557708
973.344410 178.978215 -22.298485
12.732821 91.908449 -35.887983
713.934027 162.537415 -4.928878
1029.203531 259.133438 -14.979347
1029.386622 140.349597 -17.517165
709.339201 214.498512 -8.851365
122.310065 222.313226 -33.771599
377.639320 41.467018 -2.348081
604.693099 213.609891 -7.173562
1029.257480 229.715106 -21.899225
1029.221177 141.549552 -28.168380
-12.859631 133.771873 -4.882547
-233.981138 214.077054 -5.368202
1029.184340 250.622315 -9.354484
1029.115912 138.104862 -11.754595
1029.020587 188.147850 -23.823336
1029.259073 166.069571 -28.080659
1029.121508 190.466885 -8.136797
902.510376 217.732727 -17.816781
422.237684 386.356569 -3.913509
-236.073224 212.563160 -3.864616
1028.976683 198.275371 -20.143932
1029.216848 231.067388 -27.441933
526.797520 130.701779 -36.514401
1029.134359 189.002731 -8.993922
1028.982673 228.031097 -11.093356
615.233621 366.697354 -6.559590
566.623330 8.149916 -20.050300
1029.064718 230.128527 -9.890916
1029.261154 171.158954 -29.184869
381.472231 52.266270 -10.001146
1029.152980 136.636137 -10.985803
688.313613 334.305528 -6.201668
1029.072949 189.720784 -13.672791
1029.126679 229.823613 -11.368067
1029.116635 266.379400 -22.171789
223.581636 261.754608 -13.303537
1029.194718 140.926378 -10.790143
-157.518888 180.029774 -31.610359
290.239366 206.280164 -2.923719
231.425657 199.253902 -5.531443
718.777449 220.237008 -12.397783
114.618105 264.695904 -13.193056
1029.165082 249.277036 -18.436584
978.329254 238.915590 -17.156505
546.742465 83.850769 -2.658247
908.277608 215.037745 -13.834478
1029.162656 250.509853 -9.214404
313.682970 170.486256 -26.600656
511.137584 3.954590 -13.195499
551.814600 10.250736 -12.425377
-111.286838 387.809099 -18.922911
1028.993105 141.600352 -27.791848
1029.312762 229.305865 -15.668280
618.476308 225.954676 -4.432784
1029.207264 189.143456 -11.935037
795.110197 180.489273 -12.382413
-521.968095 274.745299 -37.141578
1029.232534 189.628657 -19.390733
760.605736 187.670680 -9.571285
1029.259166 229.986926 -17.220021
1029.103068 198.247599 -27.320136
1028.989402 252.799752 -25.582654
1029.160703 187.417509 -7.500706
1029.086343 261.955222 -10.171866
90.119756 179.386097 -26.230366
1029.196213 265.861447 -23.563606
1029.060599 250.741090 -23.158830
599.557476 367.842627 -11.232680
-239.102040 175.741934 -19.957127
-210.770715 303.122894 -3.451580
1029.184939 230.710144 -21.207296
1029.139103 188.001014 -24.091368
1029.296602 165.116357 -11.684768
674.134738 214.182716 -28.492520
233.736206 240.275788 -2.689730
1029.246652 152.097065 -21.274371
1029.238727 166.185289 -18.220476
593.427989 6.258110 -12.403307
1029.317852 166.310171 -11.196974
1029.074538 141.753036 -28.112455
1028.978325 226.681346 -19.098767
1029.070636 229.001683 -26.946571
200.208110 211.551616 -34.878359
1029.076318 154.088305 -26.648681
640.311829 14.324488 -7.584470
1029.134247 165.425647 -17.916420
306.468574 106.665569 -4.725548
1028.993193 251.027087 -9.360745
1029.191202 138.906774 -12.100933
-200.968137 180.165744 -2.615637
754.399650 213.212835 -15.895540
1028.987540 207.207378 -15.083185
1029.256612 249.121303 -18.632310
1029.083419 261.565138 -18.628778
1029.186294 141.644426 -26.875536
1029.125480 163.915666 -20.865933
1029.067550 187.903334 -11.437351
670.331713 214.250470 -28.200247
1028.977323 191.701105 -10.560304
-18.746658 35.081297 -34.489548
1029.130325 227.908705 -11.363294
477.853271 89.709961 -23.886934
-15.741201 125.127155 -34.163583
1028.994581 191.539402 -20.807746
1029.089074 228.582486 -11.134421
1029.032689 139.337093 -11.491075
749.187691 180.574804 -26.298952
337.843713 88.407422 -36.598797
569.078419 8.126687 -20.096094
1029.118109 188.779216 -7.828990
1029.058995 154.448558 -27.720059
430.431379 254.787379 -0.007289
381.642471 251.126466 -25.855529
1029.130825 162.909080 -15.085360
1029.287445 139.578995 -9.591735
254.685384 342.323109 -6.814709
1029.138655 191.579951 -20.417899
604.445283 220.579206 -25.774667
622.734353 180.231802 -19.807404
1002.013092 268.575880 -9.625973
296.488984 126.334748 -34.896012
766.962635 186.556939 -7.354763
1029.114565 185.116480 -26.917102
1029.027159 188.449629 -8.741109
1029.088616 227.990706 -18.525192
558.634177 162.000516 -23.845836
640.038591 190.820632 -29.980928
825.596901 316.365094 -8.134497
753.358920 67.731389 -6.608472
-0.043929 157.491420 -34.190151
928.769060 216.860398 -8.323001
1028.993735 205.652109 -16.980837
1029.000713 266.680231 -14.841078
1029.019230 264.554280 -17.341043
1029.020443 260.195748 -17.082613
357.205851 68.201102 -3.288092
701.308582 171.296942 -23.991935
-126.032180 388.176160 -30.618517
-41.241597 295.255161 -36.853713
585.709918 184.433098 -5.945211
318.512049 188.805012 -18.208738
485.191319 220.145710 -3.922036
1028.992364 140.724015 -18.226469
880.046155 191.530695 -14.510154
1029.288175 250.532170 -11.240318
1028.982169 140.578835 -8.523235
-0.009678 205.760716 -36.862773
-498.979428 188.831119 -24.925503
1028.991480 184.793799 -26.995024
-149.607838 281.537468 -4.192010
1029.263509 251.378450 -21.648380
-405.727331 126.087389 -35.854277
1029.055936 181.494904 -18.997324
311.044196 157.455027 -11.116351
1029.168282 189.604127 -16.148881
-139.923278 174.445629 -26.103711
1029.060040 188.469406 -26.483053
1029.156936 166.796368 -19.504463
1029.062033 251.332961 -17.754174
758.367365 219.812149 -19.206378
1029.058731 251.612451 -21.507725
1029.209896 251.530546 -18.765869
1029.226357 141.141672 -26.962504
1029.035831 258.818714 -21.723534
1029.137454 191.840832 -7.148699
-39.865863 125.234821 -33.746153
1028.992617 143.275617 -33.765066
188.012660 215.236416 -3.256490
1029.052570 231.238678 -23.593649
594.210217 260.688259 -26.310479
676.070131 329.885960 -6.238427
1029.019086 186.784368 -8.920433
1029.062089 229.606706 -11.842059
-492.825402 185.894054 -3.611960
11.808287 104.817538 -33.922186
748.366988 186.464914 -29.630963
1029.055737 139.105929 -11.640209
-45.763717 123.122904 -31.261749
1029.084872 192.212440 -20.238293
-261.000291 212.211197 -5.005963
-123.118959 217.508096 -12.710483
1028.996143 151.715862 -17.273462
1028.994285 231.174448 -6.028807
411.591621 245.039275 -3.410562
568.816970 206.457362 -5.050136
1029.256785 153.702561 -22.613375
1029.274629 189.295571 -19.419725
742.808893 342.338995 -15.494217
3.910799 145.024670 -33.469882
1029.096721 252.600993 -23.946544
1029.235200 153.879772 -27.568629
-288.187243 212.411189 -36.443403
268.628002 330.080722 -26.785900
1029.273908 151.732683 -17.452964
1029.014351 139.407205 -11.818104
-197.438986 215.645933 -4.420981
1028.984348 184.826144 -32.941579
521.820934 81.040350 -3.769992
1028.980649 249.835231 -21.175183
716.918078 187.509594 -11.222298
1029.188393 230.634547 -28.444128
1029.080799 230.197874 -9.454699
598.083366 214.552340 -30.841540
578.662374 385.345022 -7.419601
326.971090 90.381764 -35.527580
1029.008500 206.564596 -15.792315
507.805654 101.998316 -2.369940
1029.067852 141.603446 -27.818469
1029.069269 165.176413 -18.524279
1029.133526 191.427176 -10.540003
34.977415 225.206874 -3.007534
-137.278400 174.315397 -5.571027
552.358637 5.905487 -25.330913
1029.220334 140.786220 -22.054353
19.706031 233.062595 -37.699504
1029.175277 141.288491 -25.554240
353.976627 77.944393 -32.912201
759.666926 252.028820 -34.712695
562.069482 106.382123 -4.623721
1029.228811 229.056026 -21.423484
1029.263211 229.727649 -8.828450
-35.620842 215.690066 -32.071736
1029.255636 140.847097 -10.347196
1029.144526 262.952322 -22.063480
32.905314 164.511371 -34.196262
1029.093018 189.431262 -22.359625
97.327924 263.133139 -2.564028
929.420393 240.370178 -16.745724
465.097986 86.015108 -25.112245
618.436393 171.212846 -11.126138
1029.146176 187.848913 -9.040993
1029.240783 141.515258 -27.379984
-284.000265 340.631566 -5.935615
1029.025452 191.423095 -15.451683
287.489929 319.134076 -5.887496
-215.871715 219.072670 -26.194630
508.525107 4.502942 -10.100037
1029.083022 262.773429 -19.497108
1029.086616 250.371744 -7.973811
1029.037398 262.781573 -26.167907
1029.137774 227.226450 -10.712844
1029.144133 141.824809 -12.094427
822.367451 320.033437 -7.699310
1029.072346 230.843770 -24.585391
59.747397 157.630449 -31.697187
566.554394 5.780312 -11.600100
451.039182 73.290207 -21.002758
383.715070 264.446758 -19.990846
-180.619174 116.052321 -26.106041
668.724819 125.635500 -6.091361
536.601540 159.216478 -23.392019
-159.843893 220.609834 -5.646171
1029.220458 185.847851 -11.251454
1029.284457 252.216365 -23.460776
1029.129728 164.701498 -20.667179
661.169072 169.878149 -19.566533
387.803083 289.177454 -6.817249
886.542373 115.021196 -6.708263
1029.029557 189.622144 -9.059488
1029.097936 262.061277 -16.866182
1029.292222 139.341657 -20.537809
1029.028994 140.404660 -8.938870
568.915539 10.333226 -6.914654
1029.005844 140.255329 -9.204981
-501.068766 193.344980 -16.284028
422.364659 386.234165 -5.736371
1029.087163 227.049554 -11.271518
654.109689 187.655748 -19.218428
737.942617 353.999764 -18.129012
-51.968155 12.179404 -11.784600
1029.284670 252.620977 -25.589771
-340.149130 212.177500 -37.929811
1029.146218 191.360374 -20.366622
908.417194 178.865747 -8.897887
1028.984297 152.167014 -15.410153
348.987054 240.282709 -34.386723
1028.977495 139.629717 -6.673073
29.204179 326.505451 -34.879689
1029.217982 189.239624 -24.197824
-196.032923 177.394707 -5.582175
680.736733 214.519355 -9.205210
-276.214673 56.389681 -26.340101
1029.331110 152.525238 -20.330589
58.937637 320.630101 -36.122601
1029.187656 251.079710 -22.841616
1029.318670 140.222168 -7.695200
364.385059 73.569922 -3.402252
1029.189180 152.203793 -9.786901
778.320394 184.431245 -10.629103
1029.020630 165.105675 -19.151886
729.792885 173.135786 -6.932034
1029.190473 154.549839 -27.821762
1029.119299 138.490448 -7.169665
-178.100033 372.131913 -12.624890
1028.992859 189.529076 -21.214293
1029.200837 141.506837 -28.207214
1029.122687 189.627835 -12.980992
759.480263 248.114966 -8.194463
313.481086 185.106026 -11.339724
1029.067094 190.358882 -21.601804
1029.149717 228.931587 -26.989552
95.808957 183.852490 -35.668400
434.885046 382.430284 -1.875754
1029.126705 199.221430 -20.196635
930.109638 177.941292 -7.122665
1029.154759 191.002642 -23.581673
1029.118563 166.532241 -28.691753
544.859745 215.763869 -4.495952
1029.114841 139.297521 -11.567960
411.558032 245.110662 -3.276845
1029.136270 191.163161 -23.318089
549.899755 6.473143 -10.568653
1029.105731 205.069380 -15.635904
1028.991614 151.329544 -19.248305
-501.324771 193.569446 -16.799118
310.533695 151.814534 -36.985612
1029.120078 187.702432 -9.310782
1029.163817 184.148452 -21.974278
1029.312471 248.234907 -9.873754
320.928746 100.330925 -35.565045
1029.328978 136.843542 -18.881703
649.923131 330.159092 -24.832465
1029.222021 229.310936 -11.098716
1029.172426 140.413768 -21.018412
508.181641 133.166621 -16.980613
1029.118423 167.132526 -29.081801
1029.032436 162.086172 -8.090933
1004.338890 138.499498 -6.671301
1029.236015 251.014534 -17.909152
185.770619 193.331538 -37.146164
380.091795 257.688836 -0.853782
1028.977966 139.590846 -10.513834
1029.013381 155.959542 -27.775785
455.285254 226.868660 -22.603295
181.098276 193.725045 -36.826643
1029.030631 206.195502 -29.210784
517.950585 155.521750 -6.959262
1029.122752 191.332256 -15.803695
1029.022018 152.098673 -9.721617
1028.979961 185.456998 -7.675500
-15.616459 29.175438 -31.695910
1029.034602 250.235039 -24.035320
748.065505 179.461877 -12.178240
353.323718 74.499078 -35.754475
-216.083762 218.835381 -6.160252
1029.121923 139.486113 -10.572183
784.364917 75.543360 -6.197095
1029.016906 187.725508 -9.274138
510.789848 207.067413 -27.527593
1029.281845 164.317919 -10.568704
7.883841 292.563043 -37.634306
639.178297 332.768038 -6.013456
28.215112 318.722757 -35.932353
451.848712 2.904342 -6.561994
400.884835 273.474580 -5.355285
1029.080642 139.809185 -8.448109
498.363009 103.285940 -2.357583
1029.190996 251.339016 -24.093351
695.915400 214.747714 -8.347429
-149.183381 213.817283 -19.295835
86.572049 290.186742 -37.241044
1029.091622 188.026010 -8.426024
351.980455 65.465262 -1.973312
1029.233175 246.857364 -23.058501
574.116589 384.908387 -26.076677
1029.182799 226.565878 -26.855878
520.350054 144.963319 -24.424730
1029.001557 265.025473 -24.043119
678.793729 163.273428 -22.553479
935.482351 177.500030 -6.968451
1029.147602 265.728428 -24.808093
1028.979811 266.614511 -21.884949
603.133639 389.488002 -23.905287
89.767381 178.164529 -26.326626
378.075462 7.721897 -0.963226
1029.072314 141.391280 -11.738849
549.611253 67.386335 -5.320135
982.021767 133.904554 -5.977243
603.775483 332.619434 -6.842738
815.040697 215.108388 -17.556309
</DataArray>
</Points>
<PointData>
<DataArray NumberOfComponents='1' type='Int32' Name='ParticleType' format='ascii'>
1
1
1
1
1
1
1
1
1
1
1
1
1
1
1
1
1
1
1
1
1
1
1
1
1
1
1
1
1
1
1
1
1
1
1
1
1
1
1
1
1
1
1
1
1
1
1
1
1
1
1
1
1
1
1
1
1
1
1
1
1
1
1
1
1
1
1
1
1
1
1
1
1
1
1
1
1
1
1
1
1
1
1
1
1
1
1
1
1
1
1
1
1
1
1
1
1
1
1
1
1
1
1
1
1
1
1
1
1
1
1
1
1
1
1
1
1
1
1
1
1
1
1
1
1
1
1
1
1
1
1
1
1
1
1
1
1
1
1
1
1
1
1
1
1
1
1
1
1
1
1
1
1
1
1
1
1
1
1
1
1
1
1
1
1
1
1
1
1
1
1
1
1
1
1
1
1
1
1
1
1
1
1
1
1
1
1
1
1
1
1
1
1
1
1
1
1
1
1
1
1
1
1
1
1
1
1
1
1
1
1
1
1
1
1
1
1
1
1
1
1
1
1
1
1
1
1
1
1
1
1
1
1
1
1
1
1
1
1
1
1
1
1
1
1
1
1
1
1
1
1
1
1
1
1
1
1
1
1
1
1
1
1
1
1
1
1
1
1
1
1
1
1
1
1
1
1
1
1
1
1
1
1
1
1
1
1
1
1
1
1
1
1
1
1
1
1
1
1
1
1
1
1
1
1
1
1
1
1
1
1
1
1
1
1
1
1
1
1
1
1
1
1
1
1
1
1
1
1
1
1
1
1
1
1
1
1
1
1
1
1
1
1
1
1
1
1
1
1
1
1
1
1
1
1
1
1
1
1
1
1
1
1
1
1
1
1
1
1
1
1
1
1
1
1
1
1
1
1
1
1
1
1
1
1
1
1
1
1
1
1
1
1
1
1
1
1
1
1
1
1
1
1
1
1
1
1
1
1
1
1
1
1
1
1
1
1
1
1
1
1
1
1
1
1
1
1
1
1
1
1
1
1
1
1
1
1
1
1
1
1
1
1
1
1
1
1
1
1
1
1
1
1
1
1
1
1
1
1
1
1
1
1
1
1
1
1
1
1
1
1
1
1
1
1
1
1
1
1
1
1
1
1
1
1
1
1
1
1
1
1
1
1
1
1
1
1
1
1
1
</DataArray>
<DataArray NumberOfComponents='1' type='Int32' Name='ParticleID' format='ascii'>
0
1
2
3
4
5
6
7
8
9
10
11
12
13
14
15
16
17
18
19
20
21
22
23
24
25
26
27
28
29
30
31
32
33
34
35
36
37
38
39
40
41
42
43
44
45
46
47
48
49
50
51
52
53
54
55
56
57
58
59
60
61
62
63
64
65
66
67
68
69
70
71
72
73
74
75
76
77
78
79
80
81
82
83
84
85
86
87
88
89
90
91
92
93
94
95
96
97
98
99
100
101
102
103
104
105
106
107
108
109
110
111
112
113
114
115
116
117
118
119
120
121
122
123
124
125
126
127
128
129
130
131
132
133
134
135
136
137
138
139
140
141
142
143
144
145
146
147
148
149
150
151
152
153
154
155
156
157
158
159
160
161
162
163
164
165
166
167
168
169
170
171
172
173
174
175
176
177
178
179
180
181
182
183
184
185
186
187
188
189
190
191
192
193
194
195
196
197
198
199
200
201
202
203
204
205
206
207
208
209
210
211
212
213
214
215
216
217
218
219
220
221
222
223
224
225
226
227
228
229
230
231
232
233
234
235
236
237
238
239
240
241
242
243
244
245
246
247
248
249
250
251
252
253
254
255
256
257
258
259
260
261
262
263
264
265
266
267
268
269
270
271
272
273
274
275
276
277
278
279
280
281
282
283
284
285
286
287
288
289
290
291
292
293
294
295
296
297
298
299
300
301
302
303
304
305
306
307
308
309
310
311
312
313
314
315
316
317
318
319
320
321
322
323
324
325
326
327
328
329
330
331
332
333
334
335
336
337
338
339
340
341
342
343
344
345
346
347
348
349
350
351
352
353
354
355
356
357
358
359
360
361
362
363
364
365
366
367
368
369
370
371
372
373
374
375
376
377
378
379
380
381
382
383
384
385
386
387
388
389
390
391
392
393
394
395
396
397
398
399
400
401
402
403
404
405
406
407
408
409
410
411
412
413
414
415
416
417
418
419
420
421
422
423
424
425
426
427
428
429
430
431
432
433
434
435
436
437
438
439
440
441
442
443
444
445
446
447
448
449
450
451
452
453
454
455
456
457
458
459
460
461
462
463
464
465
466
467
468
469
470
471
472
473
474
475
476
477
478
479
480
481
482
483
484
485
486
487
488
489
490
491
492
493
494
495
496
497
498
499
</DataArray>
<DataArray NumberOfComponents='1' type='Int8' Name='IsActive' format='ascii'>
1
0
1
1
0
1
0
1
1
1
0
1
1
1
1
0
1
0
1
0
1
1
0
1
0
0
1
0
1
1
1
1
0
1
0
1
0
0
1
0
1
1
1
0
1
1
1
1
0
1
0
1
0
1
1
0
1
1
0
1
1
0
1
1
0
1
1
0
0
0
0
1
0
0
1
1
1
0
1
1
1
0
0
0
0
1
0
0
0
0
1
0
0
0
0
1
1
1
0
0
0
1
0
1
1
0
1
0
1
0
0
1
1
0
0
0
1
0
1
1
1
1
0
0
1
1
0
1
0
0
1
1
0
0
0
0
0
1
0
1
0
0
1
0
0
1
1
0
0
0
0
1
0
0
0
1
0
1
1
1
1
1
0
1
1
1
0
1
1
1
1
0
0
1
0
1
1
0
1
0
0
0
0
0
1
0
0
1
1
1
0
0
0
1
1
0
0
1
0
0
0
0
1
0
1
0
1
0
0
1
1
0
0
0
0
0
0
1
0
1
0
1
1
0
0
0
1
1
1
0
0
1
1
0
0
1
0
1
1
1
1
1
0
0
0
1
1
1
1
1
1
0
0
0
0
1
1
1
1
1
1
1
0
1
0
0
1
1
0
1
0
1
0
1
0
1
0
0
0
1
0
0
0
0
0
1
0
1
0
1
1
0
0
1
1
1
0
1
0
1
1
0
0
0
1
0
0
1
1
0
0
1
1
0
0
1
0
1
0
1
0
0
1
1
1
0
1
0
0
0
1
1
1
0
1
0
1
1
1
0
0
1
0
0
1
0
1
1
1
1
0
0
1
0
1
1
1
0
0
0
0
0
1
0
1
1
1
1
1
1
1
1
0
0
0
1
1
1
0
0
0
0
1
0
1
0
0
1
1
1
0
1
0
1
0
1
0
1
0
1
1
1
0
1
0
0
1
0
1
0
1
0
0
1
0
0
0
1
1
0
0
1
1
0
1
0
0
1
0
0
0
1
0
0
1
1
0
0
0
1
0
1
0
0
1
0
0
1
0
1
1
0
0
1
1
0
1
0
0
0
1
0
1
1
1
0
1
0
1
0
1
1
1
1
0
0
1
0
1
1
1
0
1
0
1
0
1
0
1
1
0
0
1
1
0
0
1
1
1
1
</DataArray>
<DataArray NumberOfComponents='1' type='Int32' Name='ParticleTetID' format='ascii'>
66925
-61515
11269
66151
-58962
6876
-66558
74378
64819
20954
-66561
34231
9470
56846
77474
-64917
66656
-68099
6645
-66554
62158
95623
-58961
81758
-64916
-70586
59264
-61512
25217
58809
62753
26570
-68099
67325
-112396
63201
-66561
-66555
55867
-66557
58537
76412
32399
-66560
62917
9502
30868
63041
-64920
61221
-64914
67429
-61515
35044
19262
-61512
37063
7340
-64917
65831
27323
-64914
61295
63077
-72213
30742
52126
-64917
-66552
-66551
-66552
7251
-112396
-64916
83897
75002
63014
-58965
65903
61224
68239
-72207
-64920
-66554
-58961
69482
-68099
-61515
-66557
-66558
42657
-64917
-72207
-66561
-61515
34922
28766
63883
-64919
-66548
-66561
1751
-58962
3808
6111
-58955
60309
-59786
6433
-66554
-66554
2273
34040
-61518
-70584
-58965
85776
-64914
7940
60759
24713
58682
-64917
-66554
63022
40066
-146594
67413
-58962
-66560
10478
7472
-64914
-66588
-61518
-59791
-61512
58742
-112396
7472
-72210
-58965
78677
-61512
-58955
67123
61389
-58955
-59791
-156163
-66588
63722
-61515
-58955
-68105
34186
-66551
7321
27470
36973
63022
28732
-64916
72763
78336
72510
-64914
45154
69394
61961
10808
-66560
-58958
68042
-61511
63167
10690
-61514
63203
-58958
-72213
-64919
-61512
-68099
98736
-68105
-64919
68332
7297
7184
-58962
-61518
-59783
62924
31214
-66558
-59786
61367
-59783
-66560
-58958
-58965
45629
-66557
65649
-59786
95967
-64914
-66551
7254
62972
-72207
-64916
-68102
-66561
-59788
-61511
62923
-61512
7071
-58955
51868
22121
-61518
-58955
-66551
65386
25143
61389
-61512
-66561
118742
82268
-59785
-66551
32997
-61518
67421
61225
75749
95420
65397
-61521
-61512
-58958
59105
72698
56865
67267
12364
59801
-72207
-68103
-68102
-64917
37782
59068
10092
16251
70651
45080
51896
-66554
61118
-64913
-66551
5902
19217
-61521
1874
-64920
2213
-61514
45167
-61515
6959
-61517
-59786
-64916
62971
-64920
-64916
-66561
-64920
-61512
483
-66564
91483
-58961
66430
63721
-61512
-58955
19262
26601
65389
-66551
482
-61518
7543
5404
-66555
-58952
-126563
74990
-66558
-61514
71648
30435
-64919
-66561
9538
29442
-66555
-66551
7490
-61520
56845
-64920
63185
-58965
-58955
71437
68061
33821
-72207
68940
-66560
-59786
-61512
30692
6950
61966
-66557
26674
-66557
43088
72917
66278
-58962
-58955
23863
-66551
-68105
30993
-61518
31590
62720
51436
74596
-61512
-66561
9757
-61515
29683
7409
69395
-68102
-64914
-68105
-58955
-66551
56757
-58961
100837
61384
53055
82198
8794
62083
75197
9470
-61511
-64920
-59788
57787
82961
77853
-61512
-68102
-66557
-66551
61383
-66551
2276
-112399
-58955
63152
63278
5531
-64919
11122
-61518
67467
-66555
26169
-66552
44225
-61518
7255
62915
7660
-66558
38645
-64920
-66551
84832
-66552
63077
-59786
60303
-66561
-66588
7888
-61518
-66560
-61511
72903
42556
-61518
-58965
40499
115523
-72210
59925
-61518
-59791
61237
-66551
-126559
-61518
61961
-72207
-66554
2276
43721
-61512
-61518
-64913
28889
-66591
67653
-58955
-66557
74294
-59791
-59782
75225
-64916
36051
82730
-66551
-66561
55827
36051
-72213
74397
-61515
-66552
-61512
7069
-64919
65380
48455
7400
-66551
73297
-61512
66414
-59783
26620
67645
24911
53245
-127033
-66551
52112
-64919
62897
13525
37096
-61512
32418
-64919
68068
-58965
74404
-68105
56476
59457
-68105
-68106
67096
98736
-153844
-66551
76752
73748
68925
62953
</DataArray>
<DataArray NumberOfComponents='3' type='Float32' Name='vels' format='ascii'>
0.401183 -0.079378 -0.000251
2.941750 0.743093 0.251364
0.301048 0.086669 0.000699
0.939092 0.075462 0.000065
4.011166 -0.808442 0.007605
0.304723 -0.047027 -0.000150
5.291425 0.658114 0.015048
0.847940 -0.072064 0.000763
0.322701 -0.143413 -0.001594
0.152491 0.004569 0.000215
4.043204 0.516567 -0.062035
-0.013511 0.154190 0.010576
0.407413 0.008756 -0.002517
0.607826 0.269192 -0.000400
0.105925 0.035555 -0.003994
4.781214 -0.633258 0.223552
1.723372 0.080084 0.004771
1.841632 -0.359408 0.096556
0.080545 0.013356 -0.000662
4.618366 0.202199 0.374453
0.225233 0.035524 0.000911
-0.005928 -0.092242 -0.000129
3.564954 -0.948543 -0.100939
0.006701 -0.000283 0.001154
5.081494 -0.728568 0.061442
2.709453 -0.571234 0.037044
2.310395 0.082955 0.005654
2.291721 0.555347 0.251364
0.416748 -0.113942 0.000300
1.409681 -0.216457 0.000507
0.158364 0.000232 0.000031
0.394988 -1.698811 0.012200
3.213363 -0.761119 -0.003224
1.476853 -0.002071 0.002887
30.832558 8.406263 0.242404
0.771291 0.007302 -0.000538
3.361597 0.485264 0.057820
5.072144 0.616756 0.203979
0.324462 0.382959 0.006157
4.822554 0.159554 -0.071552
1.569860 0.407994 0.003854
0.286051 0.188869 0.000424
2.124263 0.570769 0.001974
3.522981 0.454183 -0.022000
1.257386 -0.010388 0.000106
0.010356 -0.000886 -0.000002
0.037693 0.048349 -0.000009
0.035500 0.000005 0.000802
5.038774 -0.652624 0.013047
0.076338 -0.000112 0.001057
2.926561 -0.297746 0.581025
0.711732 -0.009687 -0.000786
2.831417 0.656188 0.157502
0.807287 -0.836767 0.001451
0.001417 -0.000193 -0.000262
2.459462 0.587685 0.168515
0.707836 -0.023287 -0.002107
0.017667 -0.000009 0.001126
4.325011 -0.485807 0.474073
0.011497 0.000045 -0.001491
0.191318 0.104333 -0.000404
3.009809 -0.323029 0.523657
1.016555 0.008351 0.000201
0.058520 0.000098 0.000981
1.625300 0.032475 -0.102624
0.005589 -0.000494 0.000000
0.000650 0.001161 -0.000000
4.340364 -0.231916 0.365021
3.114425 0.129711 0.500337
4.121013 0.480241 0.104173
3.314428 0.340714 0.441299
0.886527 -0.009528 0.003253
46.675339 14.517866 -0.076229
4.966831 -0.741021 0.103249
13.506331 -3.154853 -2.390022
0.000857 0.002798 -0.002876
0.429093 -0.001659 -0.001591
4.058145 -0.762731 -0.344492
0.003030 -0.000014 0.000076
0.007934 -0.000012 0.000051
0.626705 0.104272 -0.000293
2.447300 0.404613 0.136695
4.955756 -0.666599 0.026369
5.270291 0.597518 0.093265
3.790543 -0.755850 0.004429
0.935449 0.519294 0.000583
3.198346 -0.576469 0.091015
2.891380 0.658313 0.072510
4.708169 0.714293 0.041555
5.286538 0.662013 0.016323
3.051627 -1.710155 -0.000602
4.335292 -0.493674 0.469468
2.376679 0.415278 0.303110
3.978817 0.514039 -0.035953
2.925429 0.736889 0.253986
0.098528 0.023701 0.000137
1.328400 -0.354164 0.003804
0.367146 -0.032672 -0.000212
4.657912 -0.665986 -0.017331
0.402313 0.016930 0.069481
4.122142 0.520750 -0.092827
0.918210 -0.095317 -0.005882
4.068510 -0.838672 0.002245
0.002884 -0.000028 -0.000858
0.015343 0.002502 0.000184
3.529941 -0.711878 0.030954
2.691337 0.110094 0.001378
5.068028 0.739679 0.098900
0.134364 0.021757 -0.000125
5.282705 0.607003 0.090999
4.672356 0.220515 0.340548
0.000326 0.003432 0.000698
0.221571 0.425035 -0.000178
2.719856 0.689432 0.014472
1.875758 -0.371275 0.170103
3.526443 -0.813141 -0.314200
0.117569 -0.051832 0.141617
2.977139 -0.317598 0.549789
0.006878 0.002016 -0.000894
3.564145 0.204750 0.001360
0.400502 0.434346 0.002482
0.980856 0.070051 0.000691
5.097804 -0.739710 -0.004191
5.187976 0.534039 0.131804
1.937762 -0.051165 0.003768
-0.005376 -0.003916 -0.000065
0.063052 -0.112684 0.126129
0.131169 0.000409 -0.000644
3.941319 -0.939718 0.019078
3.094111 0.466580 0.051646
0.510172 0.431932 0.000131
0.113755 0.000402 -0.001137
2.947628 -0.317004 0.559127
3.315421 0.229466 0.303735
3.114699 0.812712 -0.006021
3.981705 0.784788 -0.179278
2.397503 0.576482 0.045044
1.538689 0.017283 0.005727
46.605008 17.425592 -0.121316
0.205875 0.000877 -0.000666
2.453705 0.036037 -0.002453
3.273935 -0.703619 -0.146819
0.401703 0.449050 0.000387
2.267504 0.537684 0.170558
3.031390 -0.650702 0.168210
0.937096 -0.053005 -0.001223
0.022795 -0.000006 -0.000404
3.485382 -0.705401 0.047642
4.244217 0.718171 -0.088138
0.078912 -0.035162 -0.038296
3.309975 0.272851 0.268077
0.873434 -0.166905 -0.000254
3.143853 0.750221 0.009430
3.065246 -0.673178 0.198509
4.241233 -0.744797 0.007929
0.505781 1.748552 -0.039076
3.991307 0.425104 0.155119
0.487477 -0.000180 -0.000382
0.614603 -0.221802 -0.000675
3.348672 1.654418 -0.004087
0.472347 -0.002588 -0.000354
1.075551 -1.884973 0.034668
4.864729 -0.743999 0.144699
4.684670 -0.592999 0.000783
0.408393 0.179424 0.000806
0.967692 0.012606 -0.000194
2.983754 -0.330680 0.536378
-0.004274 -0.024732 -0.001326
0.061231 0.000102 -0.001030
0.026122 0.000002 -0.000392
0.095818 -0.000298 0.000030
2.912069 0.446903 0.058844
4.195891 -0.823559 0.007726
0.429125 0.002317 0.000661
3.421469 0.801853 0.232091
0.005118 0.000006 0.000765
-0.000135 0.000045 0.000121
3.917611 0.961390 0.066384
0.023055 0.000024 0.000506
3.998002 -0.839101 0.052347
2.110943 0.365026 -0.216448
4.558290 -0.718325 -0.153658
2.517882 0.602668 0.087560
2.602964 -0.618944 0.038887
0.005435 -0.002247 0.000671
3.746715 -0.624846 0.010220
4.537418 -0.639668 -0.001990
1.899671 -0.032868 -0.001811
0.030001 -0.000047 -0.000114
0.018112 0.002894 -0.000741
4.022468 -0.876011 0.007542
3.114020 0.835475 0.004567
4.032579 0.575637 0.282121
0.057486 0.000021 -0.000448
1.353384 1.855525 -0.000999
5.273003 0.663612 0.018242
5.040750 0.742126 0.111195
0.030770 0.000122 -0.000610
4.238118 0.605920 0.212747
3.032198 0.458377 0.052126
3.570209 -0.858505 0.231158