<VTKFile type='UnstructuredGrid' version='1.0' byte_order='LittleEndian' header_type='UInt64'>
<UnstructuredGrid>
<Piece NumberOfCells='500' NumberOfPoints='500'>
<Points>
<DataArray NumberOfComponents='3' type='Float32' Name='Position' format='ascii'>
-163.765322 234.600730 -4.876297
198.767956 185.785430 -21.572780
-444.892600 292.518278 -6.445931
-241.891796 265.885887 -10.245501
291.361311 245.536747 -22.745271
-368.023774 145.286208 -2.055791
186.252336 179.030064 -28.116973
-137.207989 322.747392 -7.389476
-168.012146 233.567097 -5.203816
-304.427874 254.564036 -4.719873
-25.110977 157.711660 -32.505284
-335.733315 70.768908 -29.961239
-333.480619 220.113824 -6.031870
-203.104939 140.634458 -3.984337
-32.769470 254.456794 -6.823745
256.464226 271.786955 -16.048314
53.687433 209.934172 -9.169063
92.763276 281.626907 -14.942279
-365.886761 280.692692 -6.258835
194.043117 166.130870 -21.482174
457.362919 53.283865 -11.887239
-199.143987 58.208353 -4.330906
307.481951 254.542493 -26.237372
-49.305184 382.663063 -15.733792
265.046835 278.807022 -19.310629
349.085945 259.834523 -20.502620
-292.781909 212.565420 -23.853811
301.457304 171.895214 -14.571591
-239.198071 319.069478 -37.511931
-53.820954 359.254437 -7.066173
355.942414 246.266382 -15.064469
-253.553097 157.363185 -2.623581
-6.267534 333.763185 -11.492520
189.448723 192.365702 -11.590152
-387.003538 306.931818 -19.785236
4.961685 231.341911 -8.991114
229.006933 180.377056 -27.662158
212.485320 167.750458 -20.253805
-36.728636 223.685641 -30.838396
-1.098019 116.349891 -28.155732
-65.725384 44.866297 -7.121172
-196.132449 148.681787 -4.019391
-204.751823 148.407467 -37.013778
-113.641399 26.731582 -32.487284
351.203337 241.617606 -21.231880
-399.654804 216.307508 -37.711520
-221.823026 68.030214 -35.264193
330.835606 252.149094 -14.463475
186.400081 211.587223 -22.174246
108.103901 208.786769 -9.810987
229.943869 230.838417 -13.350807
-188.615028 248.037314 -6.459011
291.606006 194.353445 -19.134932
-228.978944 323.592104 -37.274706
-501.560152 192.151156 -2.404270
-46.964116 182.765538 -8.018608
-164.682007 337.352434 -5.620138
-486.786032 182.912290 -32.562036
252.431147 261.832421 -20.547642
-17.886347 55.116700 -14.337568
-250.534489 146.458543 -34.060161
199.874717 206.572708 -13.392076
-67.259896 381.329373 -10.173665
132.816149 195.424191 -10.751687
24.827015 241.910486 -31.657531
-264.337161 249.899681 -37.404879
-97.919727 164.424387 -32.677208
254.618972 276.182332 -19.856669
-19.184877 99.629256 -9.106669
124.273589 170.560788 -15.321019
-101.300030 72.100767 -14.168028
-397.012261 184.076370 -35.668455
-1.811376 337.069098 -21.787755
252.150671 254.791467 -25.041958
-214.683386 237.942487 -2.986232
-287.911298 222.744794 -32.718586
76.187890 229.386043 -29.654365
123.532019 204.589677 -28.412215
333.165752 232.921369 -15.214818
305.459610 208.612492 -15.912974
-312.910055 140.540187 -6.603078
326.351404 223.738631 -16.271218
73.358593 286.279253 -28.095012
104.120198 184.222390 -20.630876
290.659482 245.643305 -20.639202
-210.268006 141.512180 -3.602243
-31.812545 358.204525 -11.895437
270.084317 200.470700 -18.708860
50.858606 167.098896 -23.163319
272.036956 187.420423 -27.198571
-229.144142 230.928393 -35.313043
265.616778 277.007370 -20.405929
341.544648 231.971898 -17.985937
-23.751388 158.608654 -32.182536
139.296142 188.183011 -22.675517
-257.133514 230.288378 -2.648455
-300.467097 220.512030 -2.410143
-151.753117 277.064070 -10.207147
2.011083 295.521876 -30.846975
-25.206633 108.838681 -9.511676
-13.185303 167.794779 -31.758845
-342.953446 324.247191 -12.043366
-232.744314 303.452065 -23.424553
-433.255377 176.949861 -26.656025
-401.412202 244.533473 -19.417253
116.168471 211.524275 -12.982097
-278.720706 178.486798 -24.401132
457.562679 53.280854 -16.264012
-401.384125 243.825270 -19.689037
19.029680 115.661260 -21.088183
127.978825 172.391136 -24.527453
-502.522265 192.139422 -10.250357
-208.086036 343.007330 -3.397059
-107.402760 175.181065 -23.354540
-27.368809 255.991174 -7.154827
-2.438100 257.884712 -31.936378
302.233842 207.358662 -24.466091
78.310203 267.727069 -13.212118
-447.105435 294.431376 -6.202380
-200.784979 213.586357 -27.254148
-265.633209 59.719457 -35.965984
-109.574671 151.652224 -6.775371
208.912647 216.192362 -14.343744
94.740367 180.610303 -19.293771
177.072080 193.233838 -10.554766
-215.437909 338.285902 -33.884339
-208.959229 127.843389 -17.850912
107.801100 209.438694 -10.015073
-33.828614 276.798752 -23.726201
-43.674672 77.186479 -32.420999
-306.150713 100.945630 -4.703573
-415.274788 212.380986 -4.873246
248.837096 250.869038 -13.807975
82.420211 185.384562 -15.275014
-62.941591 183.539199 -27.215517
27.142697 202.065734 -30.924450
-87.041052 172.033651 -9.054692
312.855803 224.338103 -20.056433
-34.143806 373.613868 -23.347800
-431.435098 210.871085 -3.465263
172.080548 190.685984 -20.328849
12.895642 254.158563 -30.789810
-41.483871 183.759417 -32.393879
452.013872 72.335163 -7.678269
318.565089 254.772032 -15.069245
-33.672905 365.661219 -11.213273
-28.156590 30.709272 -23.496936
87.287114 233.150589 -11.903588
2.290689 191.806014 -31.428784
-15.240387 191.456780 -32.766081
-10.077012 117.326085 -13.288370
25.239755 296.337367 -8.425016
459.417834 76.091374 -13.463505
210.343179 203.632603 -17.330684
45.435396 313.062487 -25.336179
-403.358573 302.091758 -13.354137
-35.214539 31.447970 -14.886839
-393.693715 181.679379 -32.799934
-271.573964 222.004069 -2.851657
-309.183527 220.333016 -5.376106
214.787987 196.107182 -11.757019
-402.876675 302.268770 -13.344341
183.605565 206.053901 -25.155366
-250.179480 295.828351 -21.741717
-205.981326 69.688846 -6.668650
203.299320 194.367190 -11.993120
42.811072 276.450376 -11.674247
225.273414 194.057476 -24.418649
-20.794968 51.216799 -14.146845
-92.145428 19.138677 -13.934937
-439.719924 296.663766 -19.698654
-64.309393 76.285413 -29.107299
330.853884 263.139126 -19.284924
-156.182393 254.330773 -6.731326
-26.190563 205.469933 -15.042646
156.467031 192.416392 -12.145469
-521.616981 274.500027 -37.133003
109.258624 204.946842 -20.295521
212.452207 198.475820 -11.079292
343.775021 260.180376 -22.100987
316.190448 210.431219 -24.477416
-3.486945 300.016489 -32.005037
-30.323167 184.655308 -7.766525
55.096477 308.993853 -13.726952
-162.795346 29.568128 -26.985698
161.816032 214.350623 -25.466141
85.364511 276.156228 -27.578944
-276.166445 343.451365 -17.554944
-355.485997 176.845829 -19.952542
-380.515482 273.441291 -3.039460
-232.100744 305.206410 -24.647456
-1.347528 201.986800 -29.400235
351.283065 48.340471 -12.280354
248.844128 212.255392 -27.549895
-243.318079 327.472051 -2.810067
116.683927 187.319275 -27.869035
476.526886 61.096052 -18.235654
-4.784567 76.558998 -15.396606
91.534157 197.235995 -14.080901
-45.932076 77.001400 -32.836528
322.160701 256.377867 -24.003336
37.018597 256.361055 -28.009662
-205.143773 340.332418 -34.787050
-1.724765 177.355981 -30.551239
-44.196743 30.781777 -10.630732
476.726893 59.371420 -17.878006
-263.292151 88.384696 -4.912450
-117.200295 331.477985 -12.562934
208.236762 165.392409 -17.369679
-444.275295 182.994482 -2.320111
355.378510 248.692470 -18.230632
345.081440 258.436518 -20.010798
218.645137 218.067898 -19.308133
233.994056 267.744437 -21.128332
-33.706187 70.557862 -31.983489
361.729681 43.778059 -13.252233
-1.634333 209.511169 -15.035568
77.813942 229.669940 -29.587618
111.014336 197.612284 -12.755828
-272.035193 58.009021 -34.574944
284.303675 242.801152 -15.330598
-332.370722 182.257875 -29.954716
-283.768239 92.169496 -34.241165
154.186962 189.513033 -22.783193
349.456007 261.754937 -16.759867
-78.574678 27.661072 -19.746055
34.413839 232.319384 -28.650128
-234.198887 221.361393 -36.044453
-29.833366 30.782107 -23.961150
-112.997102 173.127526 -8.611611
-40.838514 137.212174 -29.629147
-207.818331 251.919333 -3.373224
-193.185424 229.882712 -36.066166
171.394834 177.848812 -18.555991
-184.964859 43.779133 -13.430395
-220.701945 354.606438 -6.937865
62.548631 215.082958 -23.949148
-333.873427 222.979242 -33.186166
-181.878037 222.885279 -18.827006
-27.183200 347.125121 -8.497552
-226.787702 70.109218 -34.678258
-19.805245 237.521338 -7.422123
-52.503885 188.416109 -28.901310
23.663812 210.985395 -10.970569
322.666257 258.150088 -22.277606
-317.364337 212.694302 -29.694554
11.784591 236.886003 -31.463079
-24.601491 367.902559 -14.620340
-103.062602 45.957106 -6.795689
-259.368597 132.122354 -34.814843
80.852500 224.100601 -9.660973
365.396665 248.515774 -14.178292
75.570239 306.976223 -17.803257
46.520242 317.000117 -21.682458
244.109579 265.838903 -18.371467
-287.413584 174.088351 -4.840963
-179.314718 219.603729 -23.906650
-424.123590 303.998639 -31.868274
-337.234551 287.229500 -36.899917
-70.664925 239.314316 -6.687775
301.253133 207.420070 -17.857471
-216.308187 236.601552 -3.482932
187.159741 169.745470 -21.767696
345.248544 247.994781 -15.331256
267.341451 264.455500 -15.828152
174.327622 169.458972 -16.479620
-240.586024 170.084303 -36.820964
-498.540888 188.347377 -24.136447
43.985123 212.875414 -27.978580
-330.815859 254.342796 -3.860892
244.063551 252.115912 -25.286535
-405.939136 126.289386 -36.154158
329.658912 86.994780 -24.768207
-257.216204 174.585681 -12.640363
316.912024 111.497562 -22.424772
-373.029116 176.950492 -26.667500
-41.516731 193.412224 -27.814368
321.300937 77.309392 -22.759597
244.421089 248.266224 -22.700724
277.150306 228.862966 -27.038260
243.809794 252.089222 -26.265608
253.400776 257.099691 -25.026103
-40.096088 76.444601 -32.194582
214.159232 218.731421 -22.378984
-50.673098 188.131065 -9.703811
-305.002948 136.700812 -34.429365
-2.233090 122.407215 -28.479874
-252.262626 341.315630 -4.321192
10.559241 284.291005 -27.211572
-262.877804 258.092498 -32.263364
-0.516417 301.466121 -7.896242
313.498093 114.487644 -13.687459
371.545964 262.362311 -13.914233
-502.969230 193.151230 -5.008448
-354.547760 86.309454 -33.850483
13.778945 238.556244 -31.928292
192.171625 166.378585 -16.919466
-301.004474 138.861320 -32.167228
-56.140459 212.438665 -21.556550
-451.401108 211.541925 -4.694186
-337.992674 215.746847 -12.634041
-71.692779 71.741988 -24.450087
-94.219628 327.482297 -8.093093
371.781544 258.765534 -12.230926
-51.034725 237.569468 -6.748171
8.240050 190.475541 -31.866419
175.817920 185.679254 -23.871308
-362.265431 311.827784 -19.974466
-287.240908 94.096555 -33.690420
64.019401 295.557598 -28.083745
23.666626 190.979333 -29.782784
-445.961030 212.039804 -36.501499
-366.358549 307.666574 -26.666179
107.179919 183.373701 -18.579290
149.368903 167.235424 -16.341429
-394.482061 212.559388 -3.857804
-15.711212 192.753718 -31.757921
-186.605014 151.561299 -3.866377
252.133746 259.183219 -20.841278
295.636673 216.855496 -13.708951
10.738244 251.728165 -32.309147
129.968849 204.304926 -11.702999
-17.718108 232.132210 -32.357146
-58.179508 378.754783 -9.983141
-259.639841 175.419492 -35.586659
359.188308 247.156043 -15.033863
-217.343974 166.279844 -3.564160
-58.455549 36.042461 -32.562802
440.297585 49.537881 -9.935198
9.853766 207.131460 -12.435315
-325.829660 216.189613 -2.902306
-324.611916 177.124652 -5.301213
-69.364132 26.610796 -31.138645
20.686661 150.432719 -27.418442
-231.902780 230.376570 -37.737263
15.178512 140.413649 -27.403259
-212.636756 221.679207 -31.394971
-8.096681 238.636331 -33.031640
-163.920590 141.697658 -6.031832
321.477319 256.469187 -23.804916
72.980514 242.398941 -10.996027
-347.176024 217.833704 -32.752456
-3.576276 120.831073 -13.021501
-48.438261 374.447376 -27.714836
-266.332713 83.773682 -34.174346
-50.257629 187.607389 -27.264999
-285.050612 320.173022 -2.504641
-244.968942 259.186196 -19.567942
-59.516556 216.467698 -28.460225
-58.282955 220.635632 -8.868788
292.186712 181.005926 -13.417325
-33.261862 79.301363 -31.779884
-482.499448 282.923923 -6.678040
-178.586006 175.428747 -17.470066
-162.279235 348.847132 -6.074309
-411.176420 217.244851 -26.567901
-120.439622 20.199462 -8.752617
219.985288 236.170293 -18.280973
4.775772 296.765087 -8.184968
-6.165719 316.127613 -31.947309
340.203751 259.229392 -20.392444
204.527419 165.326543 -18.230312
-25.541004 351.871699 -9.137860
299.151032 251.050629 -26.124121
-348.417793 78.890300 -32.074409
-57.457256 21.072485 -14.521017
-349.055264 208.902660 -28.222554
-213.264473 261.633185 -35.883388
-328.770187 139.788069 -26.445378
-13.511284 176.087200 -7.592612
-316.109039 211.969790 -29.501493
-333.738616 217.820057 -5.500259
256.739115 199.477687 -14.075615
-9.740521 301.747984 -32.743865
455.522836 53.177048 -17.841473
-295.456454 210.659779 -22.544085
73.042437 282.886584 -11.533521
-115.988621 51.926485 -6.798091
-20.966140 201.112650 -10.787286
190.996231 214.254952 -16.539895
129.723457 169.684682 -23.405726
-2.137615 118.930583 -10.899524
-97.793285 26.547805 -7.821656
-4.929465 126.682670 -12.827166
-502.103894 193.218873 -17.429040
76.587514 301.344873 -25.260904
62.859828 251.141205 -15.143980
345.664425 236.580489 -18.203708
50.751665 317.655968 -24.348102
-330.416873 69.269826 -11.387029
30.473101 297.850983 -29.921714
-479.190427 212.019602 -37.839016
252.497571 196.083292 -23.036254
-220.458336 177.147483 -10.573252
12.931018 151.122004 -19.032979
-207.011034 236.849693 -34.299589
-39.580350 77.959552 -7.983850
-258.572536 348.045409 -34.999536
-68.660489 172.580340 -26.228596
-412.234834 180.011460 -5.392473
317.571379 229.471441 -13.597232
-442.333148 105.613435 -26.489036
-244.747942 92.942265 -23.876734
-247.918851 347.236783 -35.998785
94.467278 267.228587 -27.245220
-28.219146 85.900136 -8.392491
-15.924725 233.687036 -8.045369
196.584041 169.393725 -16.711903
75.683108 224.762874 -10.189176
470.813655 55.683278 -18.897332
-160.760711 175.590304 -7.659397
-31.762246 146.876820 -31.238001
-93.195761 27.758430 -13.183584
-455.475237 292.364359 -13.155374
327.501238 93.944942 -25.871925
-161.538509 41.551344 -33.164897
46.075466 216.659240 -17.240330
-249.633783 303.481022 -11.609849
-314.119962 213.122443 -11.216752
327.700398 93.640682 -25.895132
-73.107118 278.639337 -30.502488
-205.447791 61.967897 -35.848385
-33.490820 332.200088 -7.060605
326.083109 223.041644 -25.001976
-102.031542 173.308510 -9.373651
-57.187205 217.017624 -29.591405
219.046970 185.221617 -27.960787
-153.184967 241.715852 -5.993107
63.088195 179.211536 -14.455989
342.420552 258.753983 -22.062701
-138.089576 178.174480 -28.305728
-66.830675 22.526612 -10.553352
357.349193 253.110923 -15.272174
-228.601556 126.853070 -23.640192
-502.112498 193.975150 -18.133949
-275.892496 221.367125 -36.242734
19.116814 209.698752 -10.645729
97.547976 205.756073 -24.634232
272.331137 270.186280 -17.509185
-245.103039 170.060567 -35.436063
179.497166 166.713894 -20.947213
-269.219611 301.681261 -31.802145
361.697128 262.858599 -17.320774
124.958924 173.422255 -24.825850
-369.437689 185.430065 -22.367012
20.339132 201.081280 -31.234850
-5.062418 168.725664 -9.391143
-21.834438 104.752392 -9.270874
250.471182 255.130396 -21.870021
-218.020230 236.447647 -37.067694
-213.645569 248.673476 -3.066674
-0.671529 117.332423 -11.504417
-11.322797 176.972000 -32.812463
-191.889617 180.581820 -26.985482
-245.187635 236.418671 -36.849843
22.227295 241.569319 -31.794685
-170.918598 157.469872 -6.319474
99.113558 204.998484 -18.781124
167.537978 170.406660 -15.932854
-134.305364 169.058013 -7.446999
-363.898325 82.594855 -32.187418
2.980212 297.105945 -31.434877
53.279193 229.203548 -12.467185
-196.666267 224.041862 -35.451563
-372.014205 216.518479 -5.727607
-8.487324 73.784131 -14.489449
-60.491978 44.122086 -7.342656
303.072098 152.573884 -14.424755
-206.833258 246.377687 -35.061486
34.777924 192.908785 -11.440043
-247.902346 317.508224 -37.644309
-42.919878 320.587867 -6.797849
-256.960319 341.781509 -35.898727
-138.726944 21.334776 -8.515373
8.692751 281.110570 -24.210758
-18.102176 104.064208 -9.411410
-190.847983 163.096254 -3.735860
-12.933634 308.642796 -32.610525
109.153156 206.648804 -10.142162
-379.840883 212.515919 -19.466743
-273.579362 333.470322 -37.368796
29.505211 206.671559 -8.971215
-254.136812 170.122342 -3.132265
111.937293 229.534577 -27.244959
-29.254007 354.478515 -30.386604
303.071129 252.307792 -25.716427
-317.359115 212.357318 -29.734707
-26.126063 350.480344 -30.197302
-311.960332 181.850379 -29.595801
-42.523445 219.244200 -9.853787
116.742977 241.464887 -25.212132
93.875408 286.344287 -22.365797
-48.854359 374.730416 -27.377071
-94.441497 18.383374 -29.701858
-242.009201 54.347214 -12.979281
55.447069 171.616096 -15.067659
-250.302626 128.243991 -9.601441
-17.652090 113.777187 -9.519872
-250.439323 300.511032 -10.148790
377.275748 249.182652 -11.325104
</DataArray>
</Points>
<PointData>
<DataArray NumberOfComponents='1' type='Int32' Name='ParticleType' format='ascii'>
1
1
1
1
1
1
1
1
1
1
1
1
1
1
1
1
1
1
1
1
1
1
1
1
1
1
1
1
1
1
1
1
1
1
1
1
1
1
1
1
1
1
1
1
1
1
1
1
1
1
1
1
1
1
1
1
1
1
1
1
1
1
1
1
1
1
1
1
1
1
1
1
1
1
1
1
1
1
1
1
1
1
1
1
1
1
1
1
1
1
1
1
1
1
1
1
1
1
1
1
1
1
1
1
1
1
1
1
1
1
1
1
1
1
1
1
1
1
1
1
1
1
1
1
1
1
1
1
1
1
1
1
1
1
1
1
1
1
1
1
1
1
1
1
1
1
1
1
1
1
1
1
1
1
1
1
1
1
1
1
1
1
1
1
1
1
1
1
1
1
1
1
1
1
1
1
1
1
1
1
1
1
1
1
1
1
1
1
1
1
1
1
1
1
1
1
1
1
1
1
1
1
1
1
1
1
1
1
1
1
1
1
1
1
1
1
1
1
1
1
1
1
1
1
1
1
1
1
1
1
1
1
1
1
1
1
1
1
1
1
1
1
1
1
1
1
1
1
1
1
1
1
1
1
1
1
1
1
1
1
1
1
1
1
1
1
1
1
1
1
1
1
1
1
1
1
1
1
1
1
1
1
1
1
1
1
1
1
1
1
1
1
1
1
1
1
1
1
1
1
1
1
1
1
1
1
1
1
1
1
1
1
1
1
1
1
1
1
1
1
1
1
1
1
1
1
1
1
1
1
1
1
1
1
1
1
1
1
1
1
1
1
1
1
1
1
1
1
1
1
1
1
1
1
1
1
1
1
1
1
1
1
1
1
1
1
1
1
1
1
1
1
1
1
1
1
1
1
1
1
1
1
1
1
1
1
1
1
1
1
1
1
1
1
1
1
1
1
1
1
1
1
1
1
1
1
1
1
1
1
1
1
1
1
1
1
1
1
1
1
1
1
1
1
1
1
1
1
1
1
1
1
1
1
1
1
1
1
1
1
1
1
1
1
1
1
1
1
1
1
1
1
1
1
1
1
1
1
1
1
1
1
1
1
1
1
1
1
1
1
1
1
1
1
1
1
1
1
1
1
1
1
1
1
1
1
1
1
1
1
1
1
1
1
1
1
1
1
1
1
</DataArray>
<DataArray NumberOfComponents='1' type='Int32' Name='ParticleID' format='ascii'>
0
1
2
3
4
5
6
7
8
9
10
11
12
13
14
15
16
17
18
19
20
21
22
23
24
25
26
27
28
29
30
31
32
33
34
35
36
37
38
39
40
41
42
43
44
45
46
47
48
49
50
51
52
53
54
55
56
57
58
59
60
61
62
63
64
65
66
67
68
69
70
71
72
73
74
75
76
77
78
79
80
81
82
83
84
85
86
87
88
89
90
91
92
93
94
95
96
97
98
99
100
101
102
103
104
105
106
107
108
109
110
111
112
113
114
115
116
117
118
119
120
121
122
123
124
125
126
127
128
129
130
131
132
133
134
135
136
137
138
139
140
141
142
143
144
145
146
147
148
149
150
151
152
153
154
155
156
157
158
159
160
161
162
163
164
165
166
167
168
169
170
171
172
173
174
175
176
177
178
179
180
181
182
183
184
185
186
187
188
189
190
191
192
193
194
195
196
197
198
199
200
201
202
203
204
205
206
207
208
209
210
211
212
213
214
215
216
217
218
219
220
221
222
223
224
225
226
227
228
229
230
231
232
233
234
235
236
237
238
239
240
241
242
243
244
245
246
247
248
249
250
251
252
253
254
255
256
257
258
259
260
261
262
263
264
265
266
267
268
269
270
271
272
273
274
275
276
277
278
279
280
281
282
283
284
285
286
287
288
289
290
291
292
293
294
295
296
297
298
299
300
301
302
303
304
305
306
307
308
309
310
311
312
313
314
315
316
317
318
319
320
321
322
323
324
325
326
327
328
329
330
331
332
333
334
335
336
337
338
339
340
341
342
343
344
345
346
347
348
349
350
351
352
353
354
355
356
357
358
359
360
361
362
363
364
365
366
367
368
369
370
371
372
373
374
375
376
377
378
379
380
381
382
383
384
385
386
387
388
389
390
391
392
393
394
395
396
397
398
399
400
401
402
403
404
405
406
407
408
409
410
411
412
413
414
415
416
417
418
419
420
421
422
423
424
425
426
427
428
429
430
431
432
433
434
435
436
437
438
439
440
441
442
443
444
445
446
447
448
449
450
451
452
453
454
455
456
457
458
459
460
461
462
463
464
465
466
467
468
469
470
471
472
473
474
475
476
477
478
479
480
481
482
483
484
485
486
487
488
489
490
491
492
493
494
495
496
497
498
499
</DataArray>
<DataArray NumberOfComponents='1' type='Int8' Name='IsActive' format='ascii'>
1
1
1
1
1
1
1
1
1
1
1
1
1
1
1
1
1
1
1
1
1
1
1
1
1
1
1
1
1
1
1
1
1
1
1
1
1
1
1
1
1
1
1
1
1
1
1
1
1
1
1
1
1
1
1
1
1
1
1
1
1
1
1
1
1
1
1
1
1
1
1
1
1
1
1
1
1
1
1
1
1
1
1
1
1
1
1
1
1
1
1
1
1
1
1
1
1
1
1
1
1
1
1
1
1
1
1
1
1
1
1
1
1
1
1
1
1
1
1
1
1
1
1
1
1
1
1
1
1
1
1
1
1
1
1
1
1
1
1
1
1
1
1
1
1
1
1
1
1
1
1
1
1
1
1
1
1
1
1
1
1
1
1
1
1
1
1
1
1
1
1
1
1
1
1
1
1
1
1
1
1
1
1
1
1
1
1
1
1
1
1
1
1
1
1
1
1
1
1
1
1
1
1
1
1
1
1
1
1
1
1
1
1
1
1
1
1
1
1
1
1
1
1
1
1
1
1
1
1
1
1
1
1
1
1
1
1
1
1
1
1
1
1
1
1
1
1
1
1
1
1
1
1
1
1
1
1
1
1
1
1
1
1
1
1
1
1
1
1
1
1
1
1
1
1
1
1
1
1
1
1
1
1
1
1
1
1
1
1
1
1
1
1
1
1
1
1
1
1
1
1
1
1
1
1
1
1
1
1
1
1
1
1
1
1
1
1
1
1
1
1
1
1
1
1
1
1
1
1
1
1
1
1
1
1
1
1
1
1
1
1
1
1
1
1
1
1
1
1
1
1
1
1
1
1
1
1
1
1
1
1
1
1
1
1
1
1
1
1
1
1
1
1
1
1
1
1
1
1
1
1
1
1
1
1
1
1
1
1
1
1
1
1
1
1
1
1
1
1
1
1
1
1
1
1
1
1
1
1
1
1
1
1
1
1
1
1
1
1
1
1
1
1
1
1
1
1
1
1
1
1
1
1
1
1
1
1
1
1
1
1
1
1
1
1
1
1
1
1
1
1
1
1
1
1
1
1
1
1
1
1
1
1
1
1
1
1
1
1
1
1
1
1
1
1
1
1
1
1
1
1
1
1
1
1
1
1
1
1
1
1
1
1
1
1
1
1
1
1
1
</DataArray>
<DataArray NumberOfComponents='1' type='Int32' Name='ParticleTetID' format='ascii'>
1656
27927
12025
6377
34553
5078
25392
12405
16202
6428
15799
8366
11108
3314
22647
33108
35015
31759
5725
44327
52168
4032
27623
1538
35270
34641
7445
26574
12796
2307
46790
21944
12911
27923
10124
31181
26132
27747
1292
14179
13539
3312
3328
11192
26163
11950
11247
32064
37809
42647
31218
1945
33415
5182
2270
15699
4916
10850
33111
18672
13335
43134
1623
31325
25375
11807
11642
28537
95
48014
1034
16037
12917
24815
3187
9535
33800
44040
36924
34928
8821
48428
29857
27065
34551
8102
4504
32893
31565
43842
4299
35271
35107
15800
31330
21530
9432
1875
26617
687
2822
9832
6671
3808
2006
40702
7337
52170
2006
48393
48017
2273
794
1809
17337
5863
27477
29992
12026
7500
18035
11595
92384
97576
36041
2175
6794
42647
23123
23900
6464
16255
25334
100823
21720
42836
19660
40455
1361
3908
35289
30740
15709
53049
30786
16006
18551
30550
30470
660
14170
25203
55140
34692
26056
3588
18546
16034
9488
9433
43907
3588
28306
6743
9921
39119
29867
41663
1698
16980
12031
16428
37105
5367
42
36706
10690
42651
34690
35343
37415
11479
16331
26394
9660
90445
29910
7998
13165
5294
6670
5899
26699
25284
12780
32934
52784
14496
26232
23899
30791
34212
809
2929
15465
52784
15896
4018
27746
11378
46789
35343
36457
48375
16538
85772
5894
31513
34456
9701
30086
11876
17747
36713
34640
493
26672
9431
18551
1803
10148
3620
3185
42163
2706
11273
35019
11120
9511
4793
13391
1083
21668
32872
34083
7466
31819
13112
11901
8763
31505
33576
29222
26055
31310
9344
7535
4135
9196
16347
27474
3187
35199
40308
32551
50282
14578
19217
31926
7201
24814
2213
43858
7277
48143
1074
17184
40799
25337
30216
24814
33112
22621
90828
14440
6855
11372
2954
30144
6350
11471
43494
39930
2270
11337
31820
41948
6854
20063
11413
11110
3141
10157
47470
2829
32791
36046
9889
6567
29838
36552
11429
7984
47221
26034
15428
660
522
33113
25962
30739
42502
6260
742
9375
33578
3260
12542
87562
35051
10766
11143
1219
36660
4300
30504
9464
6259
5798
30791
30226
12973
11362
1544
17333
14448
17750
6380
19992
21227
35304
18733
7905
7388
4861
11620
11183
46213
26609
16933
35343
33342
4539
27622
12236
13200
12884
8459
6760
2813
7466
11108
32444
12901
52171
7445
29902
21459
653
88521
40581
11362
12371
11362
2276
29225
30014
27979
27550
8357
24510
9161
32446
7365
32983
3005
22611
7863
21322
16796
32046
8236
6491
11301
30612
869
6249
33343
33791
52783
7311
337
16978
11056
33814
17779
30696
6737
7457
33814
23503
12941
12279
48431
885
19992
38300
1639
44412
35343
6960
13198
46790
6923
2276
7431
32873
31708
35269
14579
50283
6710
37303
27100
1073
36554
12353
689
24815
3202
8064
11362
2929
9300
15657
25375
1333
31705
42164
5025
11335
29083
30263
9521
2359
19842
13539
33198
3635
33071
15550
12117
12688
3063
30142
94
2774
16934
42647
5281
17530
42827
14564
27678
4550
27622
7466
4548
7250
14512
40275
37379
1544
16986
15916
26754
6773
19967
6737
82609
</DataArray>
<DataArray NumberOfComponents='3' type='Float32' Name='vels' format='ascii'>
1.164496 0.061776 -0.000034
10.246158 0.814802 0.017868
0.137119 0.041073 0.003192
0.006325 0.001031 -0.001392
2.463565 1.233387 -0.001512
0.034759 -0.005734 -0.001573
9.260575 -0.040958 0.007268
1.005431 0.153217 0.001178
1.228375 0.058952 -0.001879
0.182589 0.029396 -0.002013
1.462721 1.074106 0.000289
0.038894 -0.011392 0.001638
0.041101 0.000209 -0.002102
0.968653 -0.097640 -0.000953
1.264638 -0.037827 0.000614
1.606233 1.894454 -0.000662
3.619200 0.293432 0.000769
1.534084 -1.855664 0.010302
0.170997 0.028397 -0.001733
5.810764 -1.076272 0.031726
4.019745 1.184288 -0.513487
1.047967 -0.246348 -0.000763
2.188495 0.980357 -0.003514
1.354213 -0.300996 -0.005312
1.667834 1.406217 0.000202
3.488545 0.450695 0.303403
0.969267 0.008314 0.002570
1.330743 -5.705410 0.012302
0.750316 0.151262 -0.000405
1.121987 -0.422767 -0.000023
3.080957 0.814285 0.371377
0.829480 -0.047924 -0.000116
1.257262 -0.961900 0.001952
7.808725 0.199311 0.009433
0.047986 0.014229 0.000069
2.019831 0.099697 0.000066
5.127234 0.774819 0.001636
7.344721 -0.388947 0.005987
1.313775 0.108177 0.000178
0.859057 0.891609 0.000048
1.179415 0.336099 0.000094
1.052315 -0.092674 0.000158
0.837233 -0.066643 0.000006
1.362678 -0.080247 0.002117
2.614351 1.001099 0.154109
0.257476 -0.007510 0.000607
1.448723 -0.294377 -0.000001
2.507904 0.909553 -0.003950
8.624849 0.371941 0.094540
7.695612 -4.723886 0.008239
3.278695 4.023074 -0.057741
0.663591 0.059980 -0.001706
3.176314 -2.219691 -0.003915
0.818689 0.170686 -0.001503
0.001780 -0.003853 0.005802
1.161084 0.730732 0.000934
0.180748 0.031702 -0.000072
0.002817 0.000051 0.001941
1.877175 2.282586 -0.004506
0.759952 1.035140 0.000670
1.281058 -0.137534 -0.000249
9.610153 1.228959 0.057596
1.253938 -0.126677 -0.002369
9.298808 -3.187481 -0.020483
2.208492 -0.230660 0.000699
1.193323 0.150230 0.001718
1.525190 0.098412 -0.003945
1.047974 1.754104 -0.004183
0.873801 1.061224 0.000078
6.336972 -2.233375 -0.088212
0.117730 0.001572 0.001157
0.799888 -0.015085 0.013582
1.779224 -1.517547 -0.000872
1.892006 2.255723 -0.005771
1.399501 0.108455 0.000281
1.567027 0.038780 0.001649
3.992863 -1.700073 0.003042
9.234525 -4.576506 -0.009010
1.942632 1.061460 0.002920
1.354174 0.287708 0.004643
0.695110 -0.102015 0.006452
1.344622 0.884796 -0.000846
0.982208 -0.840535 -0.000580
7.214997 -3.414108 -0.104209
2.606175 1.216587 -0.001870
0.792882 -0.078303 0.000069
1.376886 -0.958332 0.000720
6.358639 -0.100555 0.011878
2.556750 2.594296 0.038399
3.784098 -1.989728 0.004067
1.333050 0.082360 -0.000030
1.740592 1.712541 0.000703
1.879628 1.108623 0.010009
1.244332 0.852534 0.000074
11.097431 -2.178727 -0.022827
0.510791 0.029169 0.000166
0.742572 0.028820 -0.000070
1.236257 0.161616 -0.002288
2.023235 -0.698526 -0.000863
0.934752 1.033940 -0.000682
1.491121 0.870610 -0.000063
2.503990 0.679411 -0.002950
0.112206 0.018460 0.000601
0.002189 -0.000029 -0.000425
-0.006032 -0.001142 -0.006144
8.370096 -4.848297 0.002704
1.112296 -0.008493 0.004419
4.459926 1.247981 -0.878558
-0.007525 -0.001064 -0.004198
1.011654 1.661168 0.001867
6.672434 -2.011784 -0.037887
0.000847 0.001071 0.000940
0.570952 0.136944 0.000368
1.732391 0.038555 -0.003796
1.353305 -0.140077 0.000315
1.521812 -0.302307 0.000469
1.877147 -0.447455 -0.009261
1.837775 -0.887558 0.000481
0.115143 0.034247 0.003868
1.024440 0.012188 0.003985
0.061001 -0.015908 -0.000372
1.343709 0.032361 0.000276
7.404951 3.722815 -0.001105
6.207936 -2.873576 -0.141282
8.580253 -0.152452 -0.001417
1.444854 0.350408 -0.000542
0.129468 -0.020843 0.000373
5.869964 -4.485247 0.032984
1.960907 -0.431893 -0.000107
0.788062 0.943224 0.000043
0.042647 -0.007092 -0.001932
0.797149 -0.013189 0.005483
2.091797 2.294621 -0.003105
7.107429 -0.530247 -0.066268
1.179267 0.979350 0.014147
2.393262 0.633029 0.000167
1.956747 0.307992 0.001776
1.709255 1.018351 -0.002235
0.881387 -0.375077 0.001221
0.079839 0.000632 0.003090
11.467170 -0.298154 -0.004554
2.262390 -0.235111 -0.000142
1.111107 0.732847 0.000963
2.244953 1.104699 -0.262949
2.540498 0.900146 -0.000372
1.058187 -0.670455 -0.000581
0.949471 0.466283 0.000178
3.950063 -2.271412 -0.002781
2.120370 1.139510 -0.000266
1.363101 0.607691 -0.000497
1.106318 1.298750 0.002263
1.847419 -0.517546 0.001526
2.700634 1.558645 -0.277134
9.502242 1.841516 0.037144
1.919393 -0.311296 0.000917
0.025915 0.007653 0.000381
1.027176 0.368324 -0.000113
0.086385 0.000049 0.001044
0.633930 0.014457 0.000592
0.586832 0.008904 0.002285
6.286247 1.569685 0.005547
0.013529 0.003995 0.000069
9.289175 0.150246 0.036164
0.801224 0.135012 0.001447
1.500597 -0.312582 0.000264
7.664193 0.947882 0.013339
2.186071 -0.726590 0.002391
8.012470 2.364655 0.006898
0.796191 0.938092 0.000460
1.527459 0.018053 0.001881
0.303501 0.089423 0.002416
1.508112 1.155388 0.002743
2.494394 0.561838 -0.006935
1.512869 0.133859 0.000560
1.988175 0.608016 -0.000670
7.093056 -0.437770 -0.010766
-0.003655 0.001446 0.000124
8.905576 -5.358996 0.005412
8.139663 1.778474 0.024181
3.128927 0.548080 0.078244
1.033006 0.338888 -0.006166
1.560456 -0.676465 0.000387
1.685835 1.021413 -0.002377
1.819649 -0.486728 -0.000734
0.304476 -0.089568 0.000575
7.580767 -0.155224 -0.045414
1.945736 -1.728348 0.003689
2.155282 0.592233 0.000193
0.056715 -0.000028 -0.000555
0.072096 0.011758 -0.000910
1.080798 0.184769 0.002285
1.645631 0.539862 -0.000394
4.975284 -1.394537 1.771308
4.706337 2.244030 0.001351
1.089809 0.245721 -0.001409
7.751998 -3.456122 -0.023592
3.427292 1.673824 -0.017502
0.923807 1.374519 -0.000038
8.080635 -3.042461 -0.025781
1.038032 1.147136 0.001623
2.359046 0.876027 -0.000797
2.703150 -0.643954 -0.001215
1.449672 0.339945 -0.000749
1.337979 0.715146 0.000031
1.049336 0.363317 -0.000705
3.435558 1.618063 -0.012328
0.068674 -0.013594 -0.000329
1.826776 0.169438 0.000766
7.410587 -0.638304 -0.006003
0.007953 -0.000085 0.001543
3.358771 0.769095 0.431110
3.221817 0.586226 0.098994
5.303011 5.125876 -0.138197
1.114699 2.523162 -0.016868
0.929329 1.161026 -0.000493
4.393431 -0.900592 4.568913
2.501543 0.656974 -0.001146
3.660861 -1.665581 0.007048
7.935186 -4.297705 -0.009587
0.569295 -0.159885 0.000135