<VTKFile type='UnstructuredGrid' version='1.0' byte_order='LittleEndian' header_type='UInt64'>
<UnstructuredGrid>
<Piece NumberOfCells='500' NumberOfPoints='500'>
<Points>
<DataArray NumberOfComponents='3' type='Float32' Name='Position' format='ascii'>
679.076056 182.270241 -4.667984
1029.059357 188.209033 -16.808274
-45.867989 376.196506 -6.399372
1028.977209 230.333959 -4.691858
1029.278797 232.304881 -20.074967
-58.602611 112.851593 -2.631604
1029.253611 152.748402 -21.930599
1028.999307 227.831264 -4.645276
659.024363 185.380246 -3.973277
488.633245 253.017276 -3.841420
1029.136333 154.676584 -29.201451
89.638969 177.732264 -26.331540
338.930630 237.148869 -6.097134
760.432235 139.594237 -4.237422
656.436538 216.738527 -4.333430
1029.359902 252.147987 -15.006536
1029.119520 187.784713 -4.743284
1029.087137 262.783777 -11.868301
542.586585 249.255605 -6.229976
1029.193912 138.980634 -19.474711
1029.180406 166.324271 -12.000646
923.936763 111.529534 -4.466022
1029.076102 228.539705 -26.569211
460.843921 396.338608 -3.622674
1029.103216 249.678682 -17.080837
1028.990499 208.533237 -16.447437
1029.196326 188.604010 -17.100767
1029.136178 186.426719 -8.694585
318.750702 307.372769 -37.658776
1029.023483 265.307023 -7.267714
729.313538 214.986220 -12.107691
558.554891 127.185617 -5.532793
1029.231420 262.000992 -8.732897
1029.083701 205.611464 -10.271489
422.306524 386.274159 -3.543799
1028.995048 200.728172 -8.454059
1029.074164 155.183680 -27.112406
1029.321351 153.281068 -16.377951
815.774140 180.356851 -31.565453
1028.982668 142.206514 -26.628187
1028.977491 138.452308 -6.168599
794.742365 144.474835 -2.636505
614.996371 59.713915 -36.265196
1029.147816 142.387907 -29.713177
846.419374 212.695429 -17.711160
-182.094501 220.608367 -37.687205
578.417874 42.698151 -29.560581
1029.016275 203.193862 -10.300218
1029.339088 256.934836 -22.392138
809.804385 190.409522 -6.844277
1029.096555 251.048780 -9.627166
1028.976346 227.605951 -4.622459
1029.044092 190.888146 -17.070591
382.975780 281.945063 -34.728439
-492.043616 186.855920 -2.226375
1029.140656 185.673421 -7.749712
734.845289 318.897417 -4.592838
-85.079968 181.942243 -31.208723
1029.281029 251.617953 -16.541149
816.446533 62.539015 -11.713766
1029.020888 154.537749 -28.918852
1029.144067 251.298274 -9.433218
1029.034549 273.754103 -8.068011
1029.092811 199.203232 -10.424503
1029.099325 207.296483 -29.207397
386.735842 263.664263 -27.592492
838.059228 171.329284 -36.557882
1029.003818 260.121252 -19.353480
1029.219105 141.565174 -7.227381
1029.030335 140.847806 -10.327024
1029.210581 151.177371 -10.058554
-51.193306 202.627312 -34.369887
422.743582 386.163063 -3.664093
1029.370072 249.889205 -17.917543
693.325358 221.986725 -3.650917
626.818364 214.313975 -30.923294
1028.990420 203.263316 -27.345185
1029.088630 226.583231 -26.791639
688.698249 192.141235 -7.882036
701.533093 182.407564 -13.173703
1028.977143 150.658634 -3.922269
1029.075219 199.084609 -13.594524
1029.306689 250.607125 -21.757990
1029.275264 140.263570 -17.033113
1029.110714 228.986199 -22.802082
801.332317 145.796190 -3.987973
1029.118126 264.933374 -10.231840
1029.150350 191.275146 -16.086105
1029.304192 140.303527 -20.675616
1029.296586 152.742705 -21.728450
543.248144 198.089611 -33.444592
1029.317875 251.504023 -16.457303
1029.142010 196.584875 -14.344229
1029.292726 155.217574 -29.018318
1029.213633 188.409014 -16.858498
545.391353 205.695697 -1.771271
397.863643 67.514712 0.024426
1029.083866 230.763947 -4.547148
1029.337316 249.376128 -23.538960
1029.006290 140.497051 -6.606818
1029.101994 154.322595 -29.456101
296.459627 377.305205 -12.639310
1029.023898 231.951962 -20.916878
-432.487548 176.865223 -26.672170
-241.008889 267.606759 -19.997451
1029.244989 230.300666 -9.687840
1029.187334 191.618517 -20.456878
1029.318341 165.992030 -17.959244
-258.709305 265.874197 -19.987846
1028.977543 140.299234 -17.001177
1029.189046 140.141349 -19.420439
-501.158949 192.654842 -9.109396
517.846682 354.109521 -4.955705
1029.088515 191.145182 -20.070877
1029.119364 214.611647 -7.296110
1029.162892 231.219450 -28.952026
439.319107 74.046901 -21.099023
1029.069190 250.884586 -9.429735
-110.064765 386.621108 -5.555486
1029.161448 191.361488 -22.229912
291.953548 126.159322 -36.133455
1029.017562 182.407524 -4.431521
1029.203531 259.133438 -14.979347
1029.386622 140.349597 -17.517165
823.098087 212.685268 -8.839563
122.310570 222.313295 -33.776102
377.639320 41.467018 -2.348081
712.139633 212.639553 -7.082736
1029.257480 229.715106 -21.899225
1029.221177 141.549552 -28.168380
682.508004 70.539624 -5.105928
-138.671017 214.834288 -5.698184
1029.184340 250.622315 -9.354484
1029.115912 138.104862 -11.754595
1029.020587 188.147850 -23.823336
1029.259073 166.069571 -28.080659
1029.121508 190.466885 -8.136797
1029.124786 206.293152 -17.948811
422.237684 386.356569 -3.913509
-129.106414 213.760558 -4.213399
1028.976683 198.275371 -20.143932
1029.216848 231.067388 -27.441933
1025.482907 180.300035 -36.334487
1029.134359 189.002731 -8.993922
1028.982673 228.031097 -11.093356
1029.039157 263.371907 -6.178223
1029.066686 123.795126 -20.973499
1029.064718 230.128527 -9.890916
1029.261154 171.158954 -29.184869
381.472231 52.266270 -10.001146
1029.152980 136.636137 -10.985803
1028.980528 254.689233 -4.344013
1029.072949 189.720784 -13.672791
1029.126679 229.823613 -11.368067
1029.116635 266.379400 -22.171789
1029.076227 263.962610 -11.302050
1029.194718 140.926378 -10.790143
442.285339 69.980168 -25.076856
525.978082 165.135646 -2.550573
578.181863 180.936112 -5.448181
970.277385 219.633228 -12.765543
1029.082559 267.461904 -10.887103
1029.165082 249.277036 -18.436584
1029.236544 229.448986 -17.039859
608.662041 109.352363 -1.902070
1029.046234 203.253687 -14.894425
1029.162656 250.509853 -9.214404
363.079534 73.968998 -20.803231
563.314206 4.239572 -13.335684
744.044924 46.171403 -12.524856
306.886625 361.804061 -16.644002
1028.993105 141.600352 -27.791848
1029.312762 229.305865 -15.668280
900.806937 220.368687 -4.033755
1029.207264 189.143456 -11.935037
1029.079315 195.523317 -11.910939
-521.932710 274.710338 -37.184805
1029.232534 189.628657 -19.390733
1029.052152 201.313464 -9.953693
1029.259166 229.986926 -17.220021
1029.103068 198.247599 -27.320136
1028.989402 252.799752 -25.582654
1029.160703 187.417509 -7.500706
1029.086343 261.955222 -10.171866
90.213801 179.685847 -26.188961
1029.196213 265.861447 -23.563606
1029.060599 250.741090 -23.158830
1028.978047 263.287548 -11.028804
704.746577 168.720960 -17.398826
-82.744399 317.424465 -3.454102
1029.184939 230.710144 -21.207296
1029.139103 188.001014 -24.091368
1029.296602 165.116357 -11.684768
771.182512 212.663064 -28.661125
368.734138 320.206636 -2.155811
1029.246652 152.097065 -21.274371
1029.238727 166.185289 -18.220476
739.629784 40.910749 -12.434593
1029.317852 166.310171 -11.196974
1029.074538 141.753036 -28.112455
1028.978325 226.681346 -19.098767
1029.070636 229.001683 -26.946571
458.518802 279.178897 -24.352480
1029.076318 154.088305 -26.648681
1029.022982 123.593200 -7.574731
1029.134247 165.425647 -17.916420
879.750060 110.655370 -4.147952
1028.993193 251.027087 -9.360745
1029.191202 138.906774 -12.100933
-9.454376 213.785461 -3.084594
790.843373 212.671420 -15.948524
1028.987540 207.207378 -15.083185
1029.256612 249.121303 -18.632310
1029.083419 261.565138 -18.628778
1029.186294 141.644426 -26.875536
1029.125480 163.915666 -20.865933
1029.067550 187.903334 -11.437351
780.158774 212.668376 -28.398868
1028.977323 191.701105 -10.560304
136.710252 157.987687 -35.233237
1029.130325 227.908705 -11.363294
1029.161652 187.907923 -23.740786
854.172738 95.543216 -27.822889
1028.994581 191.539402 -20.807746
1029.089074 228.582486 -11.134421
1029.032689 139.337093 -11.491075
932.157892 181.898792 -26.582952
372.620258 58.008078 -18.904551
1028.977700 123.771931 -20.853404
1029.118109 188.779216 -7.828990
1029.058995 154.448558 -27.720059
431.909000 254.555876 0.000849
562.243472 218.869332 -35.668400
1029.130825 162.909080 -15.085360
1029.287445 139.578995 -9.591735
551.865595 386.720304 -5.612860
1029.138655 191.579951 -20.417899
780.000322 219.760245 -26.140946
715.211629 180.987845 -19.868226
1029.215009 263.230013 -9.648705
1029.156459 142.382262 -28.460508
1029.034368 200.459019 -7.800582
1029.114565 185.116480 -26.917102
1029.027159 188.449629 -8.741109
1029.088616 227.990706 -18.525192
1028.995233 188.013687 -23.848952
765.031567 192.170510 -30.103184
1028.976192 263.358560 -7.415076
1028.983311 138.661981 -6.366192
686.780659 56.129268 -28.092726
1029.056723 204.324582 -9.094241
1028.993735 205.652109 -16.980837
1029.000713 266.680231 -14.841078
1029.019230 264.554280 -17.341043
1029.020443 260.195748 -17.082613
807.001178 174.446371 -5.915516
1029.136234 190.187559 -24.030354
130.269409 230.699985 -30.794585
287.292605 267.360698 -36.974086
677.576889 184.768917 -5.505793
316.655594 181.010553 -17.374001
707.155121 222.486718 -3.795619
1028.992364 140.724015 -18.226469
1029.094447 201.959905 -15.364515
1029.288175 250.532170 -11.240318
1028.982169 140.578835 -8.523235
439.574616 55.232577 -32.938297
-499.238430 188.876844 -25.317803
1028.991480 184.793799 -26.995024
204.332447 203.709115 -4.343606
1029.263509 251.378450 -21.648380
-406.043793 125.801639 -36.184242
1029.055936 181.494904 -18.997324
311.233021 150.292216 -10.422367
1029.168282 189.604127 -16.148881
639.589356 170.366277 -26.425095
1029.060040 188.469406 -26.483053
1029.156936 166.796368 -19.504463
1029.062033 251.332961 -17.754174
965.169299 219.963911 -19.847308
1029.058731 251.612451 -21.507725
1029.209896 251.530546 -18.765869
1029.226357 141.141672 -26.962504
1029.035831 258.818714 -21.723534
1029.137454 191.840832 -7.148699
828.808993 88.626237 -27.490441
1028.992617 143.275617 -33.765066
543.507333 361.487493 -3.740740
1029.052570 231.238678 -23.593649
1028.981230 228.890302 -26.848342
1029.093284 251.035262 -4.689537
1029.019086 186.784368 -8.920433
1029.062089 229.606706 -11.842059
-486.891889 184.984757 -4.477336
575.875070 10.487353 -29.237201
1029.120593 200.514852 -29.478235
1029.055737 139.105929 -11.640209
688.677651 87.517615 -32.551902
1029.084872 192.212440 -20.238293
-156.598678 212.944498 -5.271904
655.928030 181.490640 -12.398013
1028.996143 151.715862 -17.273462
1028.994285 231.174448 -6.028807
411.591621 245.039275 -3.410562
609.238967 214.740014 -4.700833
1029.256785 153.702561 -22.613375
1029.274629 189.295571 -19.419725
1028.980026 266.824802 -15.162600
1029.044847 141.332420 -27.876488
1029.096721 252.600993 -23.946544
1029.235200 153.879772 -27.568629
-201.951116 213.606338 -36.168432
1029.187861 266.035594 -23.100899
1029.273908 151.732683 -17.452964
1029.014351 139.407205 -11.818104
76.681548 218.293319 -4.697417
1028.984348 184.826144 -32.941579
821.998573 149.329068 -3.372607
1028.980649 249.835231 -21.175183
978.804098 189.171793 -11.045178
1029.188393 230.634547 -28.444128
1029.080799 230.197874 -9.454699
798.420487 213.287339 -30.959791
1029.079907 272.075715 -6.574468
1029.065069 166.705688 -29.107270
1029.008500 206.564596 -15.792315
728.513101 158.854977 -2.346930
1029.067852 141.603446 -27.818469
1029.069269 165.176413 -18.524279
1029.133526 191.427176 -10.540003
508.112329 151.614132 -2.647563
490.624182 113.877529 -4.457136
734.559482 39.211904 -25.791560
1029.220334 140.786220 -22.054353
506.422369 211.984684 -34.760607
1029.175277 141.288491 -25.554240
513.934383 174.110651 -30.318681
1028.983994 232.598256 -35.049830
746.119081 137.574766 -4.529545
1029.228811 229.056026 -21.423484
1029.263211 229.727649 -8.828450
619.107701 180.476570 -29.442447
1029.255636 140.847097 -10.347196
1029.144526 262.952322 -22.063480
1028.985088 143.642631 -33.755904
1029.093018 189.431262 -22.359625
357.645853 330.932020 -2.572522
1029.246426 229.393185 -16.587050
1029.139657 191.405911 -25.144298
1029.093379 191.825392 -10.545870
1029.146176 187.848913 -9.040993
1029.240783 141.515258 -27.379984
-152.182461 377.783705 -6.241638
1029.025452 191.423095 -15.451683
708.510132 345.988148 -5.643643
351.654004 232.354369 -26.578632
721.460868 33.989930 -10.231633
1029.083022 262.773429 -19.497108
1029.086616 250.371744 -7.973811
1029.037398 262.781573 -26.167907
1029.137774 227.226450 -10.712844
1029.144133 141.824809 -12.094427
1028.988883 264.995240 -7.280992
1029.072346 230.843770 -24.585391
693.702418 29.469300 -28.836170
745.268952 41.685756 -11.855917
1029.022948 190.328694 -22.596931
383.728998 264.278380 -20.030941
-85.305889 106.586880 -26.052754
784.876685 143.146831 -5.882072
1028.999467 189.009184 -23.377562
343.964490 230.529079 -5.351985
1029.220458 185.847851 -11.251454
1029.284457 252.216365 -23.460776
1029.129728 164.701498 -20.667179
1029.238084 189.379812 -19.425016
1029.118967 255.401170 -11.213091
1028.998408 152.824558 -6.281295
1029.029557 189.622144 -9.059488
1029.097936 262.061277 -16.866182
1029.292222 139.341657 -20.537809
1029.028994 140.404660 -8.938870
867.262373 79.137535 -6.679307
1029.005844 140.255329 -9.204981
-497.816652 190.821685 -14.874992
422.364659 386.234165 -5.736371
1029.087163 227.049554 -11.271518
825.468805 188.660161 -19.326390
1029.258975 272.463903 -17.588611
71.665349 32.664571 -11.771463
1029.284670 252.620977 -25.589771
-230.248320 213.255614 -37.508186
1029.146218 191.360374 -20.366622
1029.105913 190.489401 -8.928432
1028.984297 152.167014 -15.410153
564.034979 197.667596 -34.776858
1028.977495 139.629717 -6.673073
214.509467 251.136641 -34.845367
1029.217982 189.239624 -24.197824
-20.180794 209.209374 -6.037674
805.361828 212.678350 -9.199199
-145.198203 18.911853 -26.229701
1029.331110 152.525238 -20.330589
124.024021 231.080579 -36.299246
1029.187656 251.079710 -22.841616
1029.318670 140.222168 -7.695200
645.655586 170.942958 -6.141595
1029.189180 152.203793 -9.786901
1028.984107 199.209111 -10.400203
1029.020630 165.105675 -19.151886
1029.009679 191.458190 -6.372217
1029.190473 154.549839 -27.821762
1029.119299 138.490448 -7.169665
3.207136 341.821209 -12.402792
1028.992859 189.529076 -21.214293
1029.200837 141.506837 -28.207214
1029.122687 189.627835 -12.980992
1029.110689 230.414989 -7.779148
312.744270 143.141170 -9.631390
1029.067094 190.358882 -21.601804
1029.149717 228.931587 -26.989552
555.659164 52.935611 -35.095314
770.564271 324.599004 -6.613476
1029.126705 199.221430 -20.196635
1028.978204 191.616251 -5.973972
1029.154759 191.002642 -23.581673
1029.118563 166.532241 -28.691753
892.346011 221.258203 -4.141591
1029.114841 139.297521 -11.567960
411.558032 245.110662 -3.276845
1029.136270 191.163161 -23.318089
777.412051 51.346942 -10.635361
1029.105731 205.069380 -15.635904
1028.991614 151.329544 -19.248305
-498.138787 191.147950 -14.838116
372.583227 54.707716 -20.816006
1029.120078 187.702432 -9.310782
1029.163817 184.148452 -21.974278
1029.312471 248.234907 -9.873754
632.176668 142.843485 -33.354814
1029.328978 136.843542 -18.881703
1029.094399 248.978200 -25.149447
1029.222021 229.310936 -11.098716
1029.172426 140.413768 -21.018412
1029.112981 188.285432 -16.581198
1029.118423 167.132526 -29.081801
1029.032436 162.086172 -8.090933
1029.041121 142.217793 -6.243565
1029.236015 251.014534 -17.909152
500.124523 211.909549 -35.246327
641.640152 239.710716 -1.848488
1028.977966 139.590846 -10.513834
1029.013381 155.959542 -27.775785
736.318981 178.852441 -26.555735
377.687719 257.126546 -33.536912
1029.030631 206.195502 -29.210784
1029.020288 191.442614 -6.282925
1029.122752 191.332256 -15.803695
1029.022018 152.098673 -9.721617
1028.979961 185.456998 -7.675500
439.604629 3.877370 -17.066166
1029.034602 250.235039 -24.035320
1028.995501 195.148381 -11.832256
372.583433 59.776160 -12.460715
-90.105640 219.313621 -6.203879
1029.121923 139.486113 -10.572183
1028.993989 138.911566 -6.091481
1029.016906 187.725508 -9.274138
1029.048186 204.788225 -27.515886
1029.281845 164.317919 -10.568704
321.636468 308.744530 -37.793300
891.907105 285.901251 -5.805694
124.817905 228.793149 -36.203407
777.471237 50.571299 -8.755097
400.884835 273.474580 -5.355285
1029.080642 139.809185 -8.448109
737.910516 165.283842 -2.344392
1029.190996 251.339016 -24.093351
823.576133 212.679033 -8.359305
486.080120 205.514570 -19.999137
168.658349 213.931228 -37.126516
1029.091622 188.026010 -8.426024
582.747769 157.882068 -1.582582
1029.233175 246.857364 -23.058501
790.955307 337.357147 -26.231390
1029.182799 226.565878 -26.855878
1029.101006 187.965896 -24.494495
1029.001557 265.025473 -24.043119
1029.035127 184.774956 -22.472807
1029.077783 191.459570 -6.368736
1029.147602 265.728428 -24.808093
1028.979811 266.614511 -21.884949
901.056682 311.487485 -23.920854
89.945271 178.781868 -26.239467
378.075462 7.721897 -0.963226
1029.072314 141.391280 -11.738849
974.358402 145.912448 -5.401378
1029.042814 142.222528 -5.287601
866.887961 287.613141 -6.622218
1028.976670 203.821537 -17.213312
</DataArray>
</Points>
<PointData>
<DataArray NumberOfComponents='1' type='Int32' Name='ParticleType' format='ascii'>
1
1
1
1
1
1
1
1
1
1
1
1
1
1
1
1
1
1
1
1
1
1
1
1
1
1
1
1
1
1
1
1
1
1
1
1
1
1
1
1
1
1
1
1
1
1
1
1
1
1
1
1
1
1
1
1
1
1
1
1
1
1
1
1
1
1
1
1
1
1
1
1
1
1
1
1
1
1
1
1
1
1
1
1
1
1
1
1
1
1
1
1
1
1
1
1
1
1
1
1
1
1
1
1
1
1
1
1
1
1
1
1
1
1
1
1
1
1
1
1
1
1
1
1
1
1
1
1
1
1
1
1
1
1
1
1
1
1
1
1
1
1
1
1
1
1
1
1
1
1
1
1
1
1
1
1
1
1
1
1
1
1
1
1
1
1
1
1
1
1
1
1
1
1
1
1
1
1
1
1
1
1
1
1
1
1
1
1
1
1
1
1
1
1
1
1
1
1
1
1
1
1
1
1
1
1
1
1
1
1
1
1
1
1
1
1
1
1
1
1
1
1
1
1
1
1
1
1
1
1
1
1
1
1
1
1
1
1
1
1
1
1
1
1
1
1
1
1
1
1
1
1
1
1
1
1
1
1
1
1
1
1
1
1
1
1
1
1
1
1
1
1
1
1
1
1
1
1
1
1
1
1
1
1
1
1
1
1
1
1
1
1
1
1
1
1
1
1
1
1
1
1
1
1
1
1
1
1
1
1
1
1
1
1
1
1
1
1
1
1
1
1
1
1
1
1
1
1
1
1
1
1
1
1
1
1
1
1
1
1
1
1
1
1
1
1
1
1
1
1
1
1
1
1
1
1
1
1
1
1
1
1
1
1
1
1
1
1
1
1
1
1
1
1
1
1
1
1
1
1
1
1
1
1
1
1
1
1
1
1
1
1
1
1
1
1
1
1
1
1
1
1
1
1
1
1
1
1
1
1
1
1
1
1
1
1
1
1
1
1
1
1
1
1
1
1
1
1
1
1
1
1
1
1
1
1
1
1
1
1
1
1
1
1
1
1
1
1
1
1
1
1
1
1
1
1
1
1
1
1
1
1
1
1
1
1
1
1
1
1
1
1
1
1
1
1
1
1
1
1
1
1
1
1
1
1
1
1
1
1
1
1
1
1
1
1
1
1
1
1
</DataArray>
<DataArray NumberOfComponents='1' type='Int32' Name='ParticleID' format='ascii'>
0
1
2
3
4
5
6
7
8
9
10
11
12
13
14
15
16
17
18
19
20
21
22
23
24
25
26
27
28
29
30
31
32
33
34
35
36
37
38
39
40
41
42
43
44
45
46
47
48
49
50
51
52
53
54
55
56
57
58
59
60
61
62
63
64
65
66
67
68
69
70
71
72
73
74
75
76
77
78
79
80
81
82
83
84
85
86
87
88
89
90
91
92
93
94
95
96
97
98
99
100
101
102
103
104
105
106
107
108
109
110
111
112
113
114
115
116
117
118
119
120
121
122
123
124
125
126
127
128
129
130
131
132
133
134
135
136
137
138
139
140
141
142
143
144
145
146
147
148
149
150
151
152
153
154
155
156
157
158
159
160
161
162
163
164
165
166
167
168
169
170
171
172
173
174
175
176
177
178
179
180
181
182
183
184
185
186
187
188
189
190
191
192
193
194
195
196
197
198
199
200
201
202
203
204
205
206
207
208
209
210
211
212
213
214
215
216
217
218
219
220
221
222
223
224
225
226
227
228
229
230
231
232
233
234
235
236
237
238
239
240
241
242
243
244
245
246
247
248
249
250
251
252
253
254
255
256
257
258
259
260
261
262
263
264
265
266
267
268
269
270
271
272
273
274
275
276
277
278
279
280
281
282
283
284
285
286
287
288
289
290
291
292
293
294
295
296
297
298
299
300
301
302
303
304
305
306
307
308
309
310
311
312
313
314
315
316
317
318
319
320
321
322
323
324
325
326
327
328
329
330
331
332
333
334
335
336
337
338
339
340
341
342
343
344
345
346
347
348
349
350
351
352
353
354
355
356
357
358
359
360
361
362
363
364
365
366
367
368
369
370
371
372
373
374
375
376
377
378
379
380
381
382
383
384
385
386
387
388
389
390
391
392
393
394
395
396
397
398
399
400
401
402
403
404
405
406
407
408
409
410
411
412
413
414
415
416
417
418
419
420
421
422
423
424
425
426
427
428
429
430
431
432
433
434
435
436
437
438
439
440
441
442
443
444
445
446
447
448
449
450
451
452
453
454
455
456
457
458
459
460
461
462
463
464
465
466
467
468
469
470
471
472
473
474
475
476
477
478
479
480
481
482
483
484
485
486
487
488
489
490
491
492
493
494
495
496
497
498
499
</DataArray>
<DataArray NumberOfComponents='1' type='Int8' Name='IsActive' format='ascii'>
1
0
1
0
0
1
0
0
1
1
0
1
1
1
1
0
0
0
1
0
0
1
0
1
0
0
0
0
1
0
1
1
0
0
0
0
0
0
1
0
0
1
1
0
0
1
1
0
0
1
0
0
0
1
1
0
1
1
0
1
0
0
0
0
0
1
1
0
0
0
0
1
0
0
1
1
0
0
0
1
0
0
0
0
0
1
0
0
0
0
1
0
0
0
0
1
0
0
0
0
0
1
0
1
1
0
0
0
1
0
0
1
1
0
0
0
1
0
1
0
1
0
0
0
0
1
0
0
0
0
1
1
0
0
0
0
0
0
0
1
0
0
1
0
0
0
0
0
0
0
0
0
0
0
0
0
0
1
1
1
1
0
0
0
1
0
0
1
1
1
1
0
0
1
0
0
1
0
0
0
0
0
0
0
1
0
0
0
1
1
0
0
0
0
1
0
0
1
0
0
0
0
1
0
0
0
1
0
0
1
0
0
0
0
0
0
0
0
0
1
0
0
1
0
0
0
1
0
0
0
0
0
1
0
0
1
0
1
1
0
0
0
0
0
0
0
0
0
0
1
0
0
0
0
0
1
0
1
1
1
1
1
0
0
0
0
1
1
0
1
0
1
0
1
0
1
0
0
0
1
0
0
0
0
0
1
0
1
0
0
0
0
0
1
1
0
0
1
0
1
1
0
0
0
1
0
0
0
0
0
0
1
0
0
0
1
0
1
0
1
0
0
1
0
0
0
1
0
0
0
1
1
1
0
1
0
1
0
1
0
0
1
0
0
0
0
1
0
0
0
0
0
1
0
1
1
1
0
0
0
0
0
0
0
1
1
0
1
1
1
0
1
0
0
0
0
0
0
0
0
0
0
1
0
0
0
0
1
0
1
0
1
0
0
0
1
0
1
0
1
0
1
0
1
0
0
1
0
0
0
0
0
0
1
0
0
0
0
1
0
0
1
1
0
0
0
0
1
0
0
0
1
0
0
0
0
0
0
0
1
0
0
0
0
0
0
0
0
0
1
1
0
0
1
1
0
0
0
0
0
1
0
0
0
1
0
0
0
0
0
1
1
1
1
0
0
1
0
0
1
1
0
1
0
1
0
0
0
0
0
0
0
1
1
0
0
1
0
1
0
</DataArray>
<DataArray NumberOfComponents='1' type='Int32' Name='ParticleTetID' format='ascii'>
63128
-61515
1531
-58952
-58962
21368
-66558
-58952
63146
52650
-66561
98736
39295
62048
62983
-64917
-61508
-68099
79057
-66554
-59783
57835
-58961
81758
-64916
-70586
-61515
-61512
28061
-68100
62932
76609
-68099
-72204
-112396
-72204
-66561
-66555
63068
-66557
-66585
64154
72485
-66560
-69092
7541
57900
-72204
-64920
63057
-64914
-58952
-61515
37709
19262
-61512
69896
14700
-64917
63527
-66561
-64914
-68100
-72203
-72213
82654
61883
-64917
-66552
-66551
-66552
15135
-112396
-64916
65126
61214
-72213
-58965
-63131
63112
-66549
-72207
-64920
-66554
-58961
62156
-68099
-61515
-66557
-66558
68433
-64917
-72207
-66561
-61515
61596
-172329
-58952
-64919
-66548
-66561
36814
-58962
3810
6379
-58955
-61518
-59786
6343
-66554
-66554
2273
71929
-61518
-70584
-58965
87804
-64914
10802
-61518
95181
-61508
-64917
-66554
-62952
40066
-146594
-63024
-58962
-66560
63758
17030
-64914
-66588
-61518
-59791
-61512
-72207
-112396
17371
-72210
-58965
56572
-61512
-58955
-68096
-66594
-58955
-59791
-156163
-66588
-64911
-61515
-58955
-68105
-68099
-66551
53488
60968
74412
65866
-68099
-64916
-58958
69176
-72207
-64914
85994
61386
65596
34567
-66560
-58958
58735
-61511
-72203
10690
-61514
-72204
-58958
-72213
-64919
-61512
-68099
98736
-68105
-64919
-68099
58687
18596
-58962
-61518
-59783
-63014
24967
-66558
-59786
63598
-59783
-66560
-58958
-58965
83966
-66557
-66588
-59786
77869
-64914
-66551
6230
-63044
-72207
-64916
-68102
-66561
-59788
-61511
-63015
-61512
99715
-58955
-61518
57198
-61518
-58955
-66551
59932
-84717
-66594
-61512
-66561
-136563
63988
-59785
-66551
61454
-61518
63011
63188
-68099
-66560
-72204
-61521
-61512
-58958
-61518
-63212
-68100
-66585
57326
-72204
-72207
-68103
-68102
-64917
56990
-61518
89857
29987
63127
43694
65234
-66554
-72207
-64913
-66551
87372
19217
-61521
31610
-64920
2213
-61514
43709
-61515
58240
-61517
-59786
-64916
61639
-64920
-64916
-66561
-64920
-61512
78404
-66564
79165
-58961
-58965
-64910
-61512
-58955
10838
61322
-72213
-66551
62366
-61518
7508
63149
-66555
-58952
-126563
67412
-66558
-61514
-68103
-66560
-64919
-66561
7505
-68105
-66555
-66551
33787
-61520
62064
-64920
64985
-58965
-58955
63050
-68096
-59791
-72207
59328
-66560
-59786
-61512
69104
52814
63604
-66557
66419
-66557
68486
-58968
62030
-58962
-58955
59917
-66551
-68105
-66564
-61518
32852
-58958
-61518
-61512
-61512
-66561
13609
-61515
61669
43678
66119
-68102
-64914
-68105
-58955
-66551
-68100
-58961
70214
63599
-61518
82198
18478
62120
-61518
39295
-61511
-64920
-59788
-61514
-64914
-66548
-61512
-68102
-66557
-66551
63615
-66551
-19215
-112399
-58955
66661
-68102
37157
-64919
9430
-61518
-61512
-66555
56752
-66552
89282
-61518
19765
-62951
18353
-66558
92064
-64920
-66551
66223
-66552
-72203
-59786
-61508
-66561
-66588
43960
-61518
-66560
-61511
-58956
45131
-61518
-58965
71872
72938
-72210
-61509
-61518
-59791
62802
-66551
-126559
-61518
63635
-72207
-66554
-19215
-85665
-61512
-61518
-64913
60065
-66591
-64919
-58955
-66557
-61515
-59791
-59782
-66548
-64916
64762
70920
-66551
-66561
63101
82391
-72213
-61508
-61515
-66552
-61512
87776
-64919
-72203
-84632
22861
-66551
-66548
-61512
-72213
-59783
27395
71282
91184
63635
-127033
-66551
71408
-64919
-62952
53899
91862
-61512
68509
-64919
63407
-58965
-61518
-68105
-61518
-61508
-68105
-68106
58565
98736
-153844
-66551
69931
-66548
66781
-72207
</DataArray>
<DataArray NumberOfComponents='3' type='Float32' Name='vels' format='ascii'>
0.075085 0.000041 0.000629
2.941750 0.743093 0.251364
0.660009 -0.115473 -0.003725
1.486189 -0.320619 0.095067
4.011166 -0.808442 0.007605
0.408783 0.233709 -0.001299
5.291425 0.658114 0.015048
1.176154 -0.254865 0.050298
0.158315 0.000161 0.001706
0.999320 0.055534 -0.007588
4.043204 0.516567 -0.062035
0.001065 0.001086 0.000084
0.272823 0.156316 0.000490
0.007713 0.001255 0.002021
0.512065 -0.003720 0.001327
4.781214 -0.633258 0.223552
2.072237 0.492204 0.162694
1.841632 -0.359408 0.096556
0.669464 0.100177 0.000672
4.618366 0.202199 0.374453
4.057130 0.583726 0.325260
2.168936 0.889147 -0.005518
3.564954 -0.948543 -0.100939
0.005089 -0.000064 0.000851
5.081494 -0.728568 0.061442
2.709453 -0.571234 0.037044
2.890267 0.733475 0.271122
2.291721 0.555347 0.251364
0.587168 0.182572 0.000454
0.600488 -0.175699 0.015577
0.544125 -0.002961 0.000214
0.760152 0.426140 -0.000192
3.213363 -0.761119 -0.003224
1.656845 -0.012767 0.231690
30.832558 8.406263 0.242404
1.694059 0.173883 0.293947
3.361597 0.485264 0.057820
5.072144 0.616756 0.203979
0.246015 0.000519 -0.001660
4.822554 0.159554 -0.071552
0.163137 0.014290 0.007623
0.800348 0.097940 0.001296
0.472904 0.037002 0.000316
3.522981 0.454183 -0.022000
1.981235 -0.030602 0.001087
0.014714 -0.000021 -0.001814
2.033969 0.001281 0.002144
1.580142 0.029803 0.349836
5.038774 -0.652624 0.013047
0.397753 0.003584 -0.000252
2.926561 -0.297746 0.581025
1.155041 -0.250378 0.045583
2.831417 0.656188 0.157502
0.088052 -0.103043 0.006759
-0.000189 0.000182 -0.000376
2.459462 0.587685 0.168515
1.128434 -0.221539 0.000192
0.796562 0.072576 -0.011221
4.325011 -0.485807 0.474073
0.136891 0.040082 0.000074
3.969074 0.510293 -0.043608
3.009809 -0.323029 0.523657
2.087373 -0.571330 0.004354
2.169836 0.361286 0.178099
1.625300 0.032475 -0.102624
0.000849 0.004230 -0.024273
1.400954 0.102919 0.001323
4.340364 -0.231916 0.365021
3.114425 0.129711 0.500337
4.121013 0.480241 0.104173
3.314428 0.340714 0.441299
0.345868 0.187174 0.001688
46.675339 14.517866 -0.076229
4.966831 -0.741021 0.103249
0.043441 0.000186 0.000533
0.459052 -0.000225 0.000447
1.666596 0.213651 -0.091226
4.058145 -0.762731 -0.344492
1.889371 0.057292 0.002064
0.076670 0.000175 0.000048
0.106433 0.018253 0.009396
2.447300 0.404613 0.136695
4.955756 -0.666599 0.026369
5.270291 0.597518 0.093265
3.790543 -0.755850 0.004429
0.118245 0.018941 0.002762
3.198346 -0.576469 0.091015
2.891380 0.658313 0.072510
4.708169 0.714293 0.041555
5.286538 0.662013 0.016323
0.522498 0.012708 0.000051
4.335292 -0.493674 0.469468
2.376679 0.415278 0.303110
3.978817 0.514039 -0.035953
2.925429 0.736889 0.253986
0.152152 0.031737 0.000358
16.443892 0.216408 0.432539
1.565890 -0.337596 0.089770
4.657912 -0.665986 -0.017331
0.402313 0.016930 0.069481
4.122142 0.520750 -0.092827
0.696872 0.103135 0.003544
4.068510 -0.838672 0.002245
-0.001670 -0.000012 0.001927
0.003575 0.000583 -0.000959
3.529941 -0.711878 0.030954
2.701473 0.675651 0.006233
5.068028 0.739679 0.098900
0.009747 0.001583 -0.000507
5.282705 0.607003 0.090999
4.672356 0.220515 0.340548
0.001079 0.001085 0.001337
0.865975 -0.083448 0.000674
2.719856 0.689432 0.014472
1.875758 -0.371275 0.170103
3.526443 -0.813141 -0.314200
0.000077 0.000063 -0.002875
2.977139 -0.317598 0.549789
0.007000 0.000267 0.002159
2.856396 0.655576 -0.021302
1.083484 -3.034124 -0.072145
1.562766 0.369950 0.099079
5.097804 -0.739710 -0.004191
5.187976 0.534039 0.131804
2.184550 -0.057329 -0.002896
-0.005607 -0.003510 -0.000061
0.063052 -0.112684 0.126129
0.384938 -0.001348 0.000332
3.941319 -0.939718 0.019078
3.094111 0.466580 0.051646
0.789794 0.156212 -0.000946
0.038492 0.000047 -0.000929
2.947628 -0.317004 0.559127
3.315421 0.229466 0.303735
3.114699 0.812712 -0.006021
3.981705 0.784788 -0.179278
2.397503 0.576482 0.045044
2.262234 -0.103763 0.199135
46.605008 17.425592 -0.121316
0.543132 0.006476 -0.002792
2.453705 0.036037 -0.002453
3.273935 -0.703619 -0.146819
0.699456 0.152654 -0.008839
2.267504 0.537684 0.170558
3.031390 -0.650702 0.168210
0.798581 -0.043527 0.108054
1.769560 0.186691 0.019901
3.485382 -0.705401 0.047642
4.244217 0.718171 -0.088138
0.078912 -0.035162 -0.038296
3.309975 0.272851 0.268077
0.028963 -0.002091 0.012138
3.143853 0.750221 0.009430
3.065246 -0.673178 0.198509
4.241233 -0.744797 0.007929
2.531490 -0.450644 0.122602
3.991307 0.425104 0.155119
1.917748 0.762169 -1.469143
0.182078 0.059934 0.000363
0.737645 -0.096605 0.001116
0.703332 -0.005883 0.002819
3.337287 -0.471002 0.163648
4.864729 -0.743999 0.144699
4.023324 -0.834694 0.046985
0.002452 0.000053 0.000325
2.333838 0.209392 0.090805
2.983754 -0.330680 0.536378
-0.000861 0.000466 0.003771
0.003153 -0.000000 0.000877
0.597341 0.172696 -0.000105
1.049686 0.312570 0.000116
2.912069 0.446903 0.058844
4.195891 -0.823559 0.007726
1.311707 0.004625 0.006725
3.421469 0.801853 0.232091
1.914013 0.373947 0.333840
0.001644 -0.000021 0.000136
3.917611 0.961390 0.066384
1.535828 0.082314 0.421986
3.998002 -0.839101 0.052347
2.110943 0.365026 -0.216448
4.558290 -0.718325 -0.153658
2.517882 0.602668 0.087560
2.602964 -0.618944 0.038887
-0.004397 0.003042 0.000009
3.746715 -0.624846 0.010220
4.537418 -0.639668 -0.001990
2.525898 -0.494562 0.096555
2.464238 0.092816 0.001207
0.397989 -0.035299 0.006742
4.022468 -0.876011 0.007542
3.114020 0.835475 0.004567
4.032579 0.575637 0.282121
1.501351 -0.039478 -0.000088