<VTKFile type='UnstructuredGrid' version='1.0' byte_order='LittleEndian' header_type='UInt64'>
<UnstructuredGrid>
<Piece NumberOfCells='500' NumberOfPoints='500'>
<Points>
<DataArray NumberOfComponents='3' type='Float32' Name='Position' format='ascii'>
-96.669909 236.228223 -4.853021
504.812901 127.060818 -17.226160
-414.668388 301.495289 -6.405847
-203.539324 271.520804 -10.297608
564.712005 263.829877 -20.255495
-329.778871 139.962777 -2.033230
543.483646 64.389976 -22.065220
-53.072095 301.953466 -7.550715
-106.807108 235.402922 -5.167788
-267.592923 259.910129 -4.866627
271.190281 186.657791 -32.522853
-292.811456 58.800066 -29.861187
-310.643707 220.512915 -6.091327
-158.417567 135.742138 -3.953670
174.059991 195.556763 -6.985466
359.623037 318.569921 -16.097288
459.480530 78.014427 -6.278925
272.275249 316.246167 -14.597503
-352.458424 282.993663 -6.439429
514.052018 32.410007 -20.089726
594.761042 122.889126 -12.975861
-119.510724 42.339698 -4.376781
566.286829 258.785131 -26.182454
38.227867 326.268940 -15.658419
366.634582 303.187585 -18.579514
549.414800 217.128792 -16.522660
-238.767631 213.393251 -23.721554
515.150061 136.989799 -9.106990
-172.588397 332.782902 -37.531770
46.251620 306.165128 -7.093510
534.131707 196.579358 -13.996757
-187.143362 152.708209 -2.564586
117.540182 250.876417 -11.058060
483.850683 218.861140 -9.888854
-329.394734 322.840087 -19.611944
312.573393 210.697755 -8.968061
542.878122 70.592341 -27.350279
574.459624 65.125464 -16.665740
270.744713 207.457525 -30.854793
286.852167 151.449668 -27.850538
3.117380 109.503559 -7.174165
-112.495262 143.467479 -4.035447
-133.876690 142.458251 -37.002144
-25.116130 47.398958 -32.410423
538.988773 199.202804 -18.499477
-395.343848 215.823792 -37.728496
-151.842766 53.253886 -35.229203
522.699025 200.899029 -9.962643
332.995400 325.838536 -22.506627
450.146813 232.188642 -4.278673
367.626976 292.656312 -12.987039
-130.797180 252.537707 -6.509293
508.926126 143.180648 -17.310235
-173.731390 335.314366 -37.298746
-497.032499 188.167458 -1.882811
229.102618 190.324465 -8.095884
-140.433840 341.770581 -5.575074
-486.587955 182.845739 -32.421526
361.125714 306.174831 -20.703056
92.372531 178.458950 -12.496143
-163.478120 137.320522 -34.089982
379.511697 278.720624 -8.429077
12.027474 329.215726 -10.082103
345.627161 228.761472 -10.305136
323.815190 239.066836 -31.781315
-199.398464 257.395251 -37.422629
28.283723 210.920547 -32.666974
351.332146 340.115848 -19.944095
203.583619 165.615129 -9.318592
506.411404 32.842506 -10.367377
-24.476641 129.710777 -14.306745
-368.922108 183.952891 -35.137844
119.527832 256.043562 -21.275849
465.902467 275.467962 -15.211124
-152.505627 242.048890 -3.046358
-137.168914 228.446236 -32.669068
369.390867 249.865717 -25.715952
466.415002 250.536455 -23.496536
516.312844 197.203546 -11.391962
367.040974 239.012648 -13.310478
-267.399748 134.028875 -6.706312
496.146447 193.255158 -13.832178
285.647634 290.037608 -27.899982
531.390749 35.860844 -17.210322
563.226107 257.169527 -22.958874
-153.943075 135.495177 -3.691463
89.565952 291.238955 -11.848314
502.941021 136.038113 -16.136431
468.534895 26.246801 -20.676177
577.623937 65.232644 -21.968707
-160.191090 234.899506 -35.310429
365.939053 301.858023 -20.170426
478.854823 205.645539 -14.288737
277.710270 183.596296 -32.166692
498.317305 117.728293 -17.185632
-213.444111 232.713002 -2.657840
-245.468596 222.362737 -2.411198
-55.765662 285.140963 -10.273041
241.859994 241.099379 -30.789198
227.069889 169.659463 -9.521856
305.522310 123.608956 -31.915973
-293.531802 338.183330 -12.071938
-175.049257 313.527884 -23.376382
-433.093736 176.941268 -26.660654
-401.837452 244.401237 -19.986825
482.759012 251.502414 -10.309317
-235.439757 177.887639 -24.238711
620.963159 126.300265 -17.919383
-400.525607 243.761121 -19.987187
286.269320 142.424727 -19.375550
531.842505 36.536914 -19.974284
-502.443009 192.171851 -10.183814
-134.401613 359.323138 -3.387156
62.090776 217.330570 -23.255307
220.374367 202.181563 -7.208024
285.111649 243.691490 -32.027170
318.323115 189.861943 -25.797344
305.418791 304.052671 -13.144274
-415.160418 303.829288 -5.901944
-123.097789 214.301746 -27.217369
-221.670940 48.389259 -35.946253
-4.955733 192.073649 -6.753402
333.367219 326.124182 -15.196772
347.749550 22.562860 -16.688749
477.413406 220.987490 -9.617843
-151.706270 352.884673 -33.892223
-122.743657 116.485712 -17.743772
456.233014 230.092542 -6.041536
293.074760 256.023932 -23.802526
40.744379 170.206511 -32.373428
-268.778518 94.191048 -4.791226
-377.420245 212.270064 -4.852800
463.462797 276.144887 -7.276082
454.209062 21.467512 -10.215689
234.850326 193.411955 -27.150301
358.777140 53.746092 -26.165277
47.009979 216.088594 -9.146288
533.707433 204.364683 -17.555406
73.467242 319.773908 -23.316316
-393.825617 210.241910 -3.273647
409.581517 240.903121 -6.144819
304.666773 249.965830 -30.910821
244.891299 195.999346 -32.463374
528.713818 153.117723 -9.273625
567.590967 255.612772 -11.778725
74.271426 311.126152 -11.181414
25.445132 99.534584 -23.487045
423.413102 256.173496 -2.547763
329.431989 80.666983 -31.400585
302.552402 180.322568 -32.768931
298.437168 120.827812 -12.531961
250.745179 255.004864 -8.122414
545.277742 161.111750 -14.061698
519.047033 253.598905 -12.337143
223.947418 261.813618 -25.136530
-386.405868 307.063727 -13.291894
24.828290 100.872042 -14.835135
-357.688887 181.446838 -32.580438
-213.094674 223.755727 -2.928227
-276.123132 221.079706 -5.439509
488.634156 216.376278 -12.828800
-368.321735 311.833177 -13.240795
381.608786 280.025789 -15.815579
-179.551914 308.156846 -21.836325
-111.425971 54.219947 -6.655139
489.151393 213.840302 -14.187849
295.270405 284.614952 -11.710548
315.510948 181.769166 -25.136091
71.555461 177.357143 -12.552682
-8.636281 47.980605 -13.911939
-385.124332 313.130149 -19.400746
23.158422 166.807502 -28.853874
598.963258 258.969755 -16.134861
-45.620119 257.922112 -6.751244
338.152441 76.693663 -14.627988
458.774445 224.383674 -9.802890
-521.812780 274.641616 -37.129049
320.637624 117.121483 -20.568717
483.206993 212.680584 -10.191044
610.319847 259.393227 -17.450619
467.084629 219.316188 -26.955970
224.799720 224.770998 -31.979304
273.237579 196.507944 -7.869034
238.023117 276.497579 -13.174886
-54.171434 23.911122 -26.921578
291.916050 335.693679 -25.811477
298.534561 295.721914 -27.336393
-155.450319 376.094326 -17.565064
-336.601957 176.636112 -19.912834
-351.711543 278.517164 -3.157422
-172.978233 315.547038 -24.716117
315.778499 113.925347 -29.755438
578.928306 119.147881 -12.158759
485.031125 213.683193 -26.670388
-191.594651 338.806947 -2.822684
524.165456 57.620765 -21.437611
633.174299 128.670188 -18.218944
190.467883 160.491845 -15.337543
521.179526 85.722544 -11.645043
37.873302 169.101991 -32.831247
591.086763 256.058996 -19.831515
333.941066 264.961389 -28.138757
-130.622704 356.134362 -34.847016
328.984552 64.500830 -30.499961
14.979736 95.469314 -10.616376
626.340107 124.655328 -17.783110
-199.148202 75.559054 -4.861031
22.187248 280.912402 -12.568849
541.526242 35.678969 -12.612741
-412.476162 183.670312 -2.247469
543.540750 198.953348 -16.853777
557.723977 216.444561 -15.403367
373.295717 288.781675 -17.154714
320.979089 349.794469 -21.201031
47.285828 167.697043 -31.977800
604.851221 122.543334 -20.749219
452.248897 72.579889 -10.337135
372.015663 251.147978 -24.186585
451.512630 77.482658 -9.499827
-206.520010 40.103287 -34.432264
546.025034 252.745313 -12.322191
-287.169568 181.498962 -29.755603
-252.110878 85.922450 -34.279898
471.015927 87.924528 -20.961614
586.059714 256.827410 -11.932645
13.699126 99.258042 -19.659034
328.327292 220.444439 -28.896560
-157.964949 223.197610 -35.954731
26.276216 102.907425 -23.904548
-11.554938 208.883569 -8.634985
229.653250 177.129534 -29.730813
-153.233798 257.439439 -3.340425
-132.749280 232.336865 -36.069877
549.365143 95.166066 -15.126612
-39.505733 41.742021 -13.396477
-121.488285 379.085516 -6.952668
480.532642 98.281282 -20.527808
-311.161779 223.353476 -33.152999
-65.613225 220.905705 -18.815469
88.089064 287.454349 -8.533460
-156.657414 55.494452 -34.637148
272.324778 212.800585 -7.452294
238.540945 192.404885 -28.938069
400.547827 66.392709 -3.176685
594.212141 257.079822 -19.032577
-261.297637 213.620918 -29.443354
313.924905 218.378215 -31.451412
78.289631 314.978122 -14.636894
-19.396291 99.468411 -6.811498
-198.675304 123.324061 -34.691257
368.792196 245.347290 -6.540131
554.771417 208.541379 -16.553401
238.650792 292.196381 -17.243843
167.769320 215.647391 -20.273597
341.377974 338.848678 -18.350511
-211.364701 171.602701 -4.901253
-53.536769 214.801027 -23.865621
-350.417873 325.105601 -31.402413
-320.295390 290.256763 -36.994633
51.267943 232.661873 -6.692656
318.295607 188.231880 -17.492702
-145.780611 241.190296 -3.453536
555.796381 39.528535 -18.563348
531.881496 195.239896 -14.936814
490.868120 294.286219 -12.148722
522.468260 35.515737 -8.551464
-188.495127 167.825678 -36.860310
-498.672386 188.529821 -24.381357
435.231257 63.696786 -13.218454
-297.225482 259.286904 -3.976863
357.679693 309.097837 -25.293813
-405.780518 126.147311 -35.924809
570.569993 150.648803 -19.389353
-218.753241 174.045812 -12.718379
522.059558 152.504308 -16.368322
-333.971800 176.350407 -26.579892
288.672871 195.505419 -27.856299
588.376513 122.913514 -19.548147
391.737282 280.198424 -6.866766
515.203404 205.879625 -19.112904
357.006737 309.444362 -26.317582
463.651801 277.189130 -14.578570
46.180578 173.012910 -32.149721
336.685583 327.032595 -22.836554
243.388102 193.542268 -9.777422
-249.956457 128.453105 -34.381028
297.211574 125.679424 -28.401939
-172.722134 361.413205 -4.376696
299.334833 260.341730 -27.158522
-225.665961 263.626044 -32.115817
226.430133 225.705308 -7.703779
521.380393 143.583392 -9.332366
615.000732 257.469553 -13.365079
-502.847058 192.589210 -4.314309
-263.560180 64.329012 -33.877905
316.048968 221.942552 -32.024017
534.490651 34.727449 -11.993072
-263.055778 132.914298 -32.074599
302.360243 200.296586 -21.579254
-428.097456 211.153147 -4.642981
-296.298553 216.126794 -12.631664
63.712316 190.880216 -24.221631
16.972084 277.113947 -8.296873
411.591621 245.039275 -3.410562
107.220934 209.655884 -6.688909
339.027538 60.700795 -31.430398
501.164412 121.666989 -19.618245
-245.580854 342.471315 -20.007602
-233.431749 84.308708 -33.522963
270.659058 288.120563 -27.912968
372.485013 37.810519 -7.735514
-431.544213 211.968118 -36.668532
-366.307334 307.692792 -26.667664
541.477834 59.693261 -17.947603
521.170930 33.855514 -12.272576
-354.567515 213.232137 -3.916099
302.378920 176.424831 -31.803501
-139.803018 148.522247 -3.835057
467.168819 273.100279 -17.531334
497.825324 203.897036 -12.252324
298.661283 249.360457 -32.451882
476.739629 251.603095 -9.679616
287.629241 215.662298 -32.363431
31.580669 321.889001 -9.914861
-184.565120 173.575880 -35.529581
560.370473 216.048919 -15.807192
-139.689350 162.847552 -3.546878
9.216706 103.203253 -32.558899
611.501079 122.235684 -18.312893
349.840425 70.585259 -11.048429
-271.933207 217.802167 -2.922837
-293.804448 176.610541 -5.344939
-7.409280 67.477906 -31.193319
340.724225 33.773552 -26.662249
-170.965429 233.394575 -37.740945
309.970912 77.881394 -27.260592
-93.101189 223.753417 -31.407195
289.809648 240.556753 -33.180974
-119.698254 138.487920 -6.003192
588.298628 258.791736 -21.627196
366.260816 264.826632 -9.157309
-306.050334 218.301977 -32.581712
300.356224 115.025196 -11.959157
46.895615 320.874259 -27.778263
-208.708943 71.525027 -34.177446
279.324621 200.345390 -27.267648
-217.217606 336.255270 -2.527093
-206.780382 264.859268 -19.549675
224.652683 192.192362 -28.460979
177.860674 188.912911 -8.943092
512.530403 135.810049 -9.434220
59.759118 181.014646 -31.719667
-425.128743 300.070385 -6.707283
-72.011016 179.661408 -17.392762
-77.639175 353.703210 -6.055723
-390.278748 217.034835 -26.616439
-32.885403 29.366108 -8.778915
313.050297 343.924527 -18.888739
239.894061 238.174754 -8.085687
138.411688 214.902588 -31.738880
556.021144 252.026218 -11.116550
540.252643 39.957657 -13.080778
86.569486 294.887835 -9.174539
561.443265 260.744578 -24.570954
-311.125130 68.479922 -31.937291
2.709168 68.771641 -14.428662
-281.351534 210.309980 -28.061239
-142.208770 270.271002 -35.851972
-308.444069 136.537973 -26.349770
300.883440 136.017987 -7.602374
-258.183918 212.968283 -29.299629
-302.272502 218.426844 -5.519020
510.939928 128.805685 -11.900512
217.167486 217.502112 -32.663418
622.779918 125.026500 -20.556458
-239.969349 211.570320 -22.464040
283.035196 299.265194 -11.287341
-29.277480 95.588648 -6.826753
304.515002 166.752689 -10.638008
312.221460 337.449993 -17.335579
527.597138 34.310118 -20.760090
303.803884 108.112905 -9.875517
-20.504292 53.280251 -7.827343
310.951799 80.499219 -12.248866
-501.978659 193.404644 -17.452407
236.194022 292.559694 -25.269682
474.988514 248.689809 -11.358833
526.322811 195.356176 -19.646026
215.879944 243.942362 -23.670795
-276.346759 54.118396 -11.389352
249.489290 261.467082 -29.849488
-466.354265 212.317854 -37.767978
504.483395 132.337631 -20.594493
-138.356442 175.492713 -10.679040
479.194489 43.250748 -15.698292
-133.097998 241.254781 -34.323934
47.259125 174.068706 -7.961669
-186.208860 368.125934 -34.953981
281.540343 198.540743 -26.215499
-374.129049 179.847049 -5.232657
513.751944 200.424390 -11.105683
-409.786604 94.641542 -26.455372
-202.252917 85.456281 -23.834097
-173.135701 367.484673 -35.988749
313.375129 300.764888 -26.992988
102.220490 181.137611 -8.170912
291.981030 209.120440 -8.089278
538.776273 60.063814 -10.215377
342.278867 230.511388 -10.010365
618.751916 122.284904 -18.886093
-77.717231 178.106570 -7.541558
259.976161 185.057825 -31.245473
-5.954897 76.901437 -13.098993
-424.442195 301.795496 -12.987014
523.362719 151.826819 -21.375069
-52.992894 41.661033 -33.093806
481.246399 95.606254 -13.640973
-207.906219 310.787570 -11.560917
-259.700155 213.861678 -11.239918
521.776277 151.102049 -21.668438
61.614403 252.542742 -30.468936
-145.726109 49.430646 -35.845982
84.794418 273.133661 -7.009163
501.866383 191.806239 -20.257358
13.807247 215.155616 -9.542479
204.979300 188.641133 -29.623895
521.798082 87.177750 -28.489447
-81.546314 244.178498 -5.934453
438.860272 19.641069 -5.428151
393.521492 253.254893 -4.746287
-50.094435 201.221450 -27.945978
-5.208126 61.915168 -10.565293
552.980951 208.910029 -15.033843
-182.200397 119.950360 -23.561737
-502.064863 193.951751 -18.074740
-194.001995 223.580502 -36.185543
356.797612 66.812378 -7.041823
490.721724 98.747372 -22.004901
500.719489 291.572083 -10.563658
-185.733733 167.545894 -35.425197
521.570475 31.139166 -19.613389
-231.792260 308.216893 -31.716264
589.517478 258.079770 -11.757405
529.245326 36.608953 -21.314567
-292.089465 183.865010 -22.243412
349.298715 61.145695 -29.925694
331.123133 60.198503 -9.092170
214.403025 167.142276 -9.301272
466.231851 277.374987 -15.034600
-138.430872 241.344475 -37.061202
-147.409630 255.241041 -3.068902
301.566239 113.216800 -10.444309
303.160500 133.038380 -33.038766
-98.262457 180.219255 -27.053516
-168.879496 241.614246 -36.840687
321.306636 236.655161 -31.819850
-126.271139 155.959179 -6.335220
491.731797 112.768453 -15.836686
529.204242 57.726590 -10.113621
-33.797009 196.324867 -7.494932
-314.405751 68.814346 -32.000752
236.499531 239.086069 -31.366854
352.296156 238.331464 -11.984386
-131.369176 225.410082 -35.428037
-332.550161 217.304256 -5.795952
171.846956 163.476153 -14.257664
7.357800 112.140801 -7.369157
516.458442 142.191997 -9.850848
-140.330114 252.070940 -34.995726
476.209664 58.497607 -10.720559
-180.537537 331.358805 -37.674201
77.253462 264.382491 -6.800650
-184.894649 360.403934 -35.909925
-55.411992 19.634140 -8.617802
316.962026 275.800642 -24.208071
226.301392 166.263668 -9.529292
-119.166808 160.394981 -3.740764
182.947577 209.324363 -32.471034
419.390345 239.960645 -2.755965
-334.188318 212.952667 -19.374303
-208.345822 349.991417 -37.352176
438.162485 68.372321 -4.592607
-189.066475 166.862107 -3.215186
337.917484 296.808882 -27.391899
80.283082 300.663300 -30.370898
561.846255 254.213109 -26.547811
-261.006206 213.258754 -29.592710
85.897658 293.293743 -30.206525
-270.786858 181.214026 -29.449671
275.978140 205.187838 -9.810469
266.010700 327.039996 -25.655418
265.510303 310.164720 -21.953073
48.590050 320.944753 -27.451415
-18.776697 36.286907 -29.705379
-102.175731 24.069267 -13.056923
357.220643 19.536747 -9.450955
-211.014254 122.394670 -9.617959
251.543862 173.859850 -9.373837
-197.751598 309.825968 -10.131323
550.335133 201.925424 -17.546776
</DataArray>
</Points>
<PointData>
<DataArray NumberOfComponents='1' type='Int32' Name='ParticleType' format='ascii'>
1
1
1
1
1
1
1
1
1
1
1
1
1
1
1
1
1
1
1
1
1
1
1
1
1
1
1
1
1
1
1
1
1
1
1
1
1
1
1
1
1
1
1
1
1
1
1
1
1
1
1
1
1
1
1
1
1
1
1
1
1
1
1
1
1
1
1
1
1
1
1
1
1
1
1
1
1
1
1
1
1
1
1
1
1
1
1
1
1
1
1
1
1
1
1
1
1
1
1
1
1
1
1
1
1
1
1
1
1
1
1
1
1
1
1
1
1
1
1
1
1
1
1
1
1
1
1
1
1
1
1
1
1
1
1
1
1
1
1
1
1
1
1
1
1
1
1
1
1
1
1
1
1
1
1
1
1
1
1
1
1
1
1
1
1
1
1
1
1
1
1
1
1
1
1
1
1
1
1
1
1
1
1
1
1
1
1
1
1
1
1
1
1
1
1
1
1
1
1
1
1
1
1
1
1
1
1
1
1
1
1
1
1
1
1
1
1
1
1
1
1
1
1
1
1
1
1
1
1
1
1
1
1
1
1
1
1
1
1
1
1
1
1
1
1
1
1
1
1
1
1
1
1
1
1
1
1
1
1
1
1
1
1
1
1
1
1
1
1
1
1
1
1
1
1
1
1
1
1
1
1
1
1
1
1
1
1
1
1
1
1
1
1
1
1
1
1
1
1
1
1
1
1
1
1
1
1
1
1
1
1
1
1
1
1
1
1
1
1
1
1
1
1
1
1
1
1
1
1
1
1
1
1
1
1
1
1
1
1
1
1
1
1
1
1
1
1
1
1
1
1
1
1
1
1
1
1
1
1
1
1
1
1
1
1
1
1
1
1
1
1
1
1
1
1
1
1
1
1
1
1
1
1
1
1
1
1
1
1
1
1
1
1
1
1
1
1
1
1
1
1
1
1
1
1
1
1
1
1
1
1
1
1
1
1
1
1
1
1
1
1
1
1
1
1
1
1
1
1
1
1
1
1
1
1
1
1
1
1
1
1
1
1
1
1
1
1
1
1
1
1
1
1
1
1
1
1
1
1
1
1
1
1
1
1
1
1
1
1
1
1
1
1
1
1
1
1
1
1
1
1
1
1
1
1
1
1
1
1
1
1
1
1
1
1
1
1
1
1
1
</DataArray>
<DataArray NumberOfComponents='1' type='Int32' Name='ParticleID' format='ascii'>
0
1
2
3
4
5
6
7
8
9
10
11
12
13
14
15
16
17
18
19
20
21
22
23
24
25
26
27
28
29
30
31
32
33
34
35
36
37
38
39
40
41
42
43
44
45
46
47
48
49
50
51
52
53
54
55
56
57
58
59
60
61
62
63
64
65
66
67
68
69
70
71
72
73
74
75
76
77
78
79
80
81
82
83
84
85
86
87
88
89
90
91
92
93
94
95
96
97
98
99
100
101
102
103
104
105
106
107
108
109
110
111
112
113
114
115
116
117
118
119
120
121
122
123
124
125
126
127
128
129
130
131
132
133
134
135
136
137
138
139
140
141
142
143
144
145
146
147
148
149
150
151
152
153
154
155
156
157
158
159
160
161
162
163
164
165
166
167
168
169
170
171
172
173
174
175
176
177
178
179
180
181
182
183
184
185
186
187
188
189
190
191
192
193
194
195
196
197
198
199
200
201
202
203
204
205
206
207
208
209
210
211
212
213
214
215
216
217
218
219
220
221
222
223
224
225
226
227
228
229
230
231
232
233
234
235
236
237
238
239
240
241
242
243
244
245
246
247
248
249
250
251
252
253
254
255
256
257
258
259
260
261
262
263
264
265
266
267
268
269
270
271
272
273
274
275
276
277
278
279
280
281
282
283
284
285
286
287
288
289
290
291
292
293
294
295
296
297
298
299
300
301
302
303
304
305
306
307
308
309
310
311
312
313
314
315
316
317
318
319
320
321
322
323
324
325
326
327
328
329
330
331
332
333
334
335
336
337
338
339
340
341
342
343
344
345
346
347
348
349
350
351
352
353
354
355
356
357
358
359
360
361
362
363
364
365
366
367
368
369
370
371
372
373
374
375
376
377
378
379
380
381
382
383
384
385
386
387
388
389
390
391
392
393
394
395
396
397
398
399
400
401
402
403
404
405
406
407
408
409
410
411
412
413
414
415
416
417
418
419
420
421
422
423
424
425
426
427
428
429
430
431
432
433
434
435
436
437
438
439
440
441
442
443
444
445
446
447
448
449
450
451
452
453
454
455
456
457
458
459
460
461
462
463
464
465
466
467
468
469
470
471
472
473
474
475
476
477
478
479
480
481
482
483
484
485
486
487
488
489
490
491
492
493
494
495
496
497
498
499
</DataArray>
<DataArray NumberOfComponents='1' type='Int8' Name='IsActive' format='ascii'>
1
1
1
1
1
1
1
1
1
1
1
1
1
1
1
1
1
1
1
1
1
1
1
1
1
1
1
1
1
1
1
1
1
1
1
1
1
1
1
1
1
1
1
1
1
1
1
1
1
1
1
1
1
1
1
1
1
1
1
1
1
1
1
1
1
1
1
1
1
1
1
1
1
1
1
1
1
1
1
1
1
1
1
1
1
1
1
1
1
1
1
1
1
1
1
1
1
1
1
1
1
1
1
1
1
1
1
1
1
1
1
1
1
1
1
1
1
1
1
1
1
1
1
1
1
1
1
1
1
1
1
1
1
1
1
1
1
1
1
1
1
1
1
1
1
1
1
1
1
1
1
1
1
1
1
1
1
1
1
1
1
1
1
1
1
1
1
1
1
1
1
1
1
1
1
1
1
1
1
1
1
1
1
1
1
1
1
1
1
1
1
1
1
1
1
1
1
1
1
1
1
1
1
1
1
1
1
1
1
1
1
1
1
1
1
1
1
1
1
1
1
1
1
1
1
1
1
1
1
1
1
1
1
1
1
1
1
1
1
1
1
1
1
1
1
1
1
1
1
1
1
1
1
1
1
1
1
1
1
1
1
1
1
1
1
1
1
1
1
1
1
1
1
1
1
1
1
1
1
1
1
1
1
1
1
1
1
1
1
1
1
1
1
1
1
1
1
1
1
1
1
1
1
0
1
1
1
1
1
1
1
1
1
1
1
1
1
1
1
1
1
1
1
1
1
1
1
1
1
1
1
1
1
1
1
1
1
1
1
1
1
1
1
1
1
1
1
1
1
1
1
1
1
1
1
1
1
1
1
1
1
1
1
1
1
1
1
1
1
1
1
1
1
1
1
1
1
1
1
1
1
1
1
1
1
1
1
1
1
1
1
1
1
1
1
1
1
1
1
1
1
1
1
1
1
1
1
1
1
1
1
1
1
1
1
1
1
1
1
1
1
1
1
1
1
1
1
1
1
1
1
1
1
1
1
1
1
1
1
1
1
1
1
1
1
1
1
1
1
1
1
1
1
1
1
1
1
1
1
1
1
1
1
1
1
1
1
1
1
1
1
1
1
1
1
1
1
1
1
1
1
1
1
1
1
1
1
1
1
1
1
1
1
1
1
1
1
1
1
1
</DataArray>
<DataArray NumberOfComponents='1' type='Int32' Name='ParticleTetID' format='ascii'>
9110
70496
2845
6395
75915
6752
68249
21623
18001
6338
43843
7610
9433
8120
27705
43100
55135
29454
12601
67689
76252
23096
66862
33036
34441
61243
7481
78251
4012
26391
62862
522
47759
51681
8018
37409
71634
68028
31297
94875
26589
11592
12058
1705
68425
15443
1187
62861
47927
84003
33538
2467
65742
4013
19208
28031
12620
10850
43103
98605
5811
39801
42971
39299
36932
862
32881
34387
33339
67595
2724
1079
40779
53936
1640
2083
47710
53957
66929
45185
6897
52224
29822
57228
72083
8120
37084
65743
51653
68031
1671
34443
55410
43844
51577
2538
9542
13091
25339
43473
46094
7961
5465
3808
2005
52727
7301
66878
2005
93182
57229
2273
10998
30827
41655
30091
45083
32332
2845
5412
12959
12513
47924
26916
54239
15083
14120
53029
24923
37219
6534
5275
55335
54472
26492
39556
30693
62863
33777
15428
136429
27626
24691
75891
66856
29219
37001
122129
40801
50413
94284
24809
58218
70402
34192
10120
36996
13172
9450
7418
51682
7978
47905
6167
24193
51684
29776
43697
99868
22092
10123
30972
61585
22971
44808
55823
10690
44955
52043
75356
52376
33530
36761
39082
13206
29657
32322
13616
11869
6031
5465
48146
78269
52050
218
56727
60055
41946
56848
37219
66427
37110
11013
47876
27905
60361
9919
24466
57226
16794
61604
63978
44503
29511
31567
73179
53051
47710
53051
9627
78215
9355
15911
52065
66424
27907
48434
1672
37001
5889
26132
1242
935
76418
3102
3279
53163
9445
24181
37085
1187
31287
26492
143424
66427
7556
34933
27654
93
8855
44641
61944
41534
89651
43064
9398
20063
8042
8656
25887
45080
1640
71864
62862
52006
72831
2789
19217
87605
6427
37234
2213
66841
7367
74402
11872
33421
59389
82038
66410
37234
55338
40891
47925
26482
6783
94464
1820
24924
6458
27273
74057
75354
2270
18033
40459
57226
6908
28809
3908
7438
34624
31071
-126563
48405
40658
70495
2961
8619
32576
85687
3923
7986
68245
72833
12872
26580
12044
54421
52223
27625
52725
25196
24897
9305
63980
15086
26599
66877
44591
9488
7345
19850
29944
16217
26148
24259
34555
14545
66431
37301
9445
95474
27552
12941
36768
2160
6398
35384
36041
74291
48649
4125
22508
11665
15437
18543
29473
27129
90678
76054
71716
37085
66161
7646
28572
7430
4101
6850
46103
7556
9433
74289
36463
66881
7481
29795
93
46570
29618
70065
95482
24233
26141
2276
26200
52295
62864
38584
7655
33115
5777
74295
6951
52712
2481
40881
9755
36767
1063
64821
2458
8596
2159
36840
40503
27471
68242
35103
66877
23961
33674
14494
4126
74403
12541
53160
7187
7546
74403
30019
5939
30605
64827
32295
39126
56911
5329
87970
127228
15132
19732
61944
8794
2276
9521
37785
52155
75676
2789
70063
6674
66424
70065
7355
34142
47147
27741
53936
2483
1242
94825
46130
15672
303
32053
17984
52818
56723
39
7645
27139
26158
2087
11108
48680
32601
74056
737
52781
6209
30045
3941
13199
28432
31649
4106
45751
123174
11113
808
87302
2774
30324
27662
72082
7556
37094
7340
33232
29440
29709
27552
7070
12370
39533
6791
45237
8968
77552
</DataArray>
<DataArray NumberOfComponents='3' type='Float32' Name='vels' format='ascii'>
0.305520 -0.007286 0.000165
0.818083 1.335152 -0.001575
1.741022 0.480404 0.003928
0.004934 0.000804 -0.001277
1.937589 0.011094 0.000143
0.020447 -0.003418 -0.002030
2.152531 0.517362 -0.000404
0.655232 -0.590011 -0.005767
1.254182 0.019381 0.001075
0.593229 0.092093 0.000878
3.544777 -1.715220 0.002547
0.899294 -0.256438 0.001089
0.306578 0.002238 0.002679
0.859962 -0.106410 -0.001286
6.858530 -0.086739 0.002377
0.620568 -0.277890 0.000223
0.954972 0.603151 -0.055394
1.042811 0.989288 0.000327
0.249098 0.041304 0.005078
2.996615 0.451224 0.002455
1.303517 0.065803 -0.007600
0.848081 -0.084581 0.001117
1.912041 0.174982 0.000370
1.724543 0.003553 -0.006188
0.823923 -0.967404 0.158425
1.385409 0.298888 -0.000395
0.197214 0.000557 0.000728
0.808152 0.859053 0.000026
0.618645 0.119798 0.000056
1.355127 -0.309394 -0.000411
0.923259 0.016831 0.000659
0.685364 -0.050877 -0.000094
1.045835 -2.668908 0.112418
1.238171 -0.764992 -0.014730
0.010487 0.003076 -0.000128
0.834104 0.334509 0.007522
1.790557 0.422608 -0.000735
2.248352 -0.169185 0.000150
3.300450 0.662430 0.002271
1.927158 -5.043862 -0.008153
0.715260 0.902589 -0.000114
0.888252 -0.000399 0.000109
0.697862 -0.032985 0.000014
0.643122 0.593486 -0.000266
1.024152 0.062017 0.000218
0.071068 0.000568 0.000185
0.780037 -0.155094 -0.000136
0.824958 -0.085521 0.001677
1.168953 0.302475 -0.000423
5.428652 -1.756963 -1.589223
2.120614 -0.792125 0.122801
0.350710 0.022267 -0.000375
0.616442 0.952685 -0.000739
0.930623 0.187366 -0.000214
0.002264 -0.001873 0.002662
4.553865 0.836074 0.007982
1.324162 0.214354 -0.000048
0.002327 0.000046 0.001816
0.195746 -0.267382 -0.016341
4.393030 -1.905493 -0.323841
0.888972 -0.091202 -0.000040
5.686726 -1.430060 2.462095
1.826030 -0.856306 0.000308
1.188117 0.723017 0.029785
1.917374 0.955874 -0.002063
0.679933 0.078155 0.000385
3.007516 0.514950 -0.000752
0.730915 0.585958 0.003030
5.244877 -0.478048 -0.016062
2.346075 0.372915 0.002735
1.535067 1.326026 0.000454
0.140033 0.001034 0.005429
0.875470 -2.663897 0.083079
2.423294 1.299071 -0.587651
0.759519 0.043293 -0.000090
1.734621 0.052974 -0.000325
2.456807 0.175820 1.363153
3.298408 -0.029281 -1.319607
0.649897 -0.134047 -0.001324
-0.003657 -0.001423 -0.010354
1.108073 -0.161298 -0.000566
0.530094 -0.416804 -0.000243
1.159355 0.684503 -0.000634
2.689441 0.322300 0.000561
1.922540 0.138364 0.001153
1.010461 -0.103470 0.000034
1.395589 -1.393341 0.001854
0.663721 1.051276 -0.000652
3.954671 0.704489 -0.349718
2.389960 -0.130637 -0.001915
1.266706 0.058746 -0.000268
0.905912 -0.991565 0.142383
0.568874 -0.632591 -0.011659
4.101406 -1.602998 -0.000409
0.641968 1.273821 0.000695
0.691333 0.028811 -0.001019
1.367656 0.047467 -0.004382
1.287527 -0.068584 -0.004609
1.851128 2.173553 -0.004870
4.999010 0.613948 0.015925
3.780422 -9.885625 0.023267
0.027679 0.008098 -0.000599
0.140666 0.023069 -0.000151
0.000793 -0.000023 -0.000548
0.007948 0.001581 -0.008781
2.239467 0.018330 -0.092974
0.109135 -0.000123 0.000266
1.842026 0.137004 0.001486
-0.012015 -0.001861 -0.001644
0.476424 -1.165898 -0.001730
2.596971 0.167391 -0.000436
0.000973 0.000866 0.000963
0.821420 0.135333 0.000127
5.037437 -0.714551 0.001814
5.612056 1.490119 0.003638
1.926671 1.180839 0.002661
-0.002106 -0.004686 -0.002855
1.229507 0.484992 -0.000619
1.687708 0.488027 0.012915
0.188405 -0.000601 -0.004299
0.788976 -0.199520 0.000305
1.415570 0.614323 -0.000418
1.121629 0.296678 -0.000903
4.262208 -1.368047 1.861004
1.821438 -1.031763 -0.141783
0.150289 0.031584 0.000231
1.159226 -0.080586 0.000806
3.275213 -1.317254 -0.801235
2.161724 1.087832 -0.000209
2.025725 1.624330 0.004175
0.961275 -0.178623 0.000385
0.819991 0.007232 0.003526
3.364523 1.024679 -0.972085
4.323954 0.897555 -0.942987
4.846529 1.211783 0.004371
1.712574 -1.160739 1.393473
2.417141 0.047644 0.004968
1.038295 -0.032692 0.002018
1.005694 -0.547022 0.000870
0.068579 -0.000150 -0.000513
31.560795 -3.243161 -0.108588
1.720470 0.806125 0.000171
5.182475 1.653060 0.001222
0.722669 0.471929 0.000066
1.746915 0.115153 -0.000093
1.038038 -0.660160 0.002209
0.615135 1.007808 0.006721
78.799883 -14.569865 -0.173210
2.447648 -4.237287 0.031335
1.498416 -2.328672 -0.002163
3.670589 -10.204333 0.118424
1.493180 2.442746 -0.010675
1.232173 0.306389 -0.000168
1.456112 0.176753 0.001717
0.618991 2.044086 -0.018367
0.038895 0.011506 -0.000878
0.683904 1.280085 0.004957
0.034380 -0.000051 0.003775
0.642592 0.016997 -0.000920
0.217237 0.001740 -0.000540
1.197994 -0.568379 0.004089
0.093666 0.026757 0.000466
3.150078 -1.365931 2.403632
1.960168 0.349027 -0.006083
0.970449 -0.016804 -0.002630
1.259474 -0.792418 -0.009432
1.472567 0.784928 -0.000064
0.000395 0.001235 -0.002132
3.258940 2.390437 0.368440
0.437115 0.781285 0.001776
0.571824 0.166526 -0.001520
2.061254 1.661169 -0.001896
2.310396 0.005760 -0.002730
1.205167 -0.085586 -0.001142
3.482786 -3.516861 0.138654
1.838493 -1.077216 -0.662796
-0.002604 0.000626 0.000118
1.471735 -3.332533 0.020124
1.035034 -0.819156 -0.014276
2.178931 -0.078747 0.000556
1.111344 -0.799883 -0.210015
2.876725 2.871361 -0.013676
4.112393 -0.364724 0.000337
0.978101 1.648621 -0.003010
1.466570 0.230848 0.002910
1.008570 0.573721 -0.000831
1.656715 0.645557 -0.000880
1.354330 0.366395 -0.000517
0.085792 -0.000214 0.000449
1.174021 0.216605 0.004877
0.027709 0.004529 -0.000071
3.645685 -8.094339 0.046011
1.183652 0.280683 -0.002653
1.065674 -0.662154 0.006069
0.651464 0.151205 -0.000182
2.447494 0.537012 0.000406
2.193656 0.218551 -0.002282
5.010677 -0.991613 -0.026449
1.447301 0.844959 0.000557
1.883408 1.568560 0.003760
2.206466 0.041533 0.000791
2.275298 0.526197 0.001475
1.276543 0.172235 0.001316
2.150947 -3.630015 0.023639
0.808162 0.967415 -0.000773
1.123529 0.159305 -0.008877
0.679639 -0.135343 0.000092
1.955253 -0.533334 -0.001082
1.920363 0.134786 -0.000243
0.496898 -0.002918 -0.001893
0.933569 0.047929 -0.000691
1.120174 0.496764 0.004289
1.618478 -1.396726 0.631572
1.212083 0.463531 -0.001221
2.026570 1.998377 0.013261
1.806465 0.090489 -0.001697
3.104309 1.353964 -0.810124
2.339044 0.267842 1.336976
1.807592 0.922622 -0.274147