<VTKFile type='UnstructuredGrid' version='1.0' byte_order='LittleEndian' header_type='UInt64'>
<UnstructuredGrid>
<Piece NumberOfCells='500' NumberOfPoints='500'>
<Points>
<DataArray NumberOfComponents='3' type='Float32' Name='Position' format='ascii'>
-218.871431 231.700365 -4.889901
-37.831550 194.019157 -21.512065
-460.253187 287.918673 -6.407564
-261.660811 262.976668 -10.201365
33.840699 256.690952 -22.708970
-386.096210 147.762237 -1.985100
-17.509310 175.527480 -27.978240
-190.128098 314.040683 -7.368970
-222.255636 230.759585 -5.117657
-328.262054 251.066927 -4.709614
-88.660896 131.600870 -32.484939
-372.138496 80.845923 -30.086951
-352.107935 219.777613 -5.955082
-245.010577 145.153340 -3.960113
-98.463366 255.715183 -6.835369
70.861558 282.442061 -16.300114
-44.144411 171.669598 -9.191792
-3.056627 325.998810 -14.978134
-378.091191 278.648726 -6.331253
-4.003795 118.378617 -21.395202
115.332908 187.707753 -16.385865
-247.752318 69.396451 -4.300729
55.240515 247.161521 -26.063472
-114.744227 385.386655 -15.768580
74.423707 273.881933 -19.376615
119.349306 207.604539 -20.916283
-334.442970 211.971898 -23.967483
11.368891 202.091366 -14.540690
-284.649224 309.915697 -37.508699
-118.066719 364.965112 -7.047951
165.051936 193.749184 -16.030144
-297.490759 160.479867 -2.636095
-67.595112 371.498047 -11.479745
-13.944775 241.906918 -11.531081
-434.441377 292.817910 -19.915011
-72.807945 230.674490 -8.973567
-8.227017 180.133312 -27.501115
-7.488957 124.276478 -20.208865
-105.767820 228.077041 -30.877050
-49.592853 59.471325 -28.193012
-132.183010 42.584194 -7.128799
-249.763984 153.425508 -3.986106
-258.354288 153.432149 -36.981020
-183.070677 41.311308 -32.502475
170.585718 192.848370 -21.535092
-423.262297 217.358281 -37.711219
-267.357985 77.889796 -35.261038
93.964540 223.175893 -14.397144
40.931393 305.549429 -22.816760
-30.428898 238.669240 -9.794225
29.966223 288.454445 -13.443795
-234.100747 243.057053 -6.438692
-4.886787 202.831820 -19.065864
-278.010282 313.520069 -37.321945
-501.681003 192.333649 -2.696328
-117.773443 163.082835 -8.007550
-221.618357 325.902124 -5.639850
-486.924112 182.876708 -32.714599
67.171116 289.916730 -20.888532
-77.625182 26.728637 -14.375910
-299.537228 151.481585 -34.075467
8.688547 290.693024 -13.532241
-134.615910 378.297678 -10.109745
-29.846333 232.012157 -10.754266
-57.767774 245.441974 -31.699233
-318.183587 243.637114 -37.402422
-170.090930 164.969623 -32.678088
71.004791 279.888963 -19.742073
-70.662848 52.780410 -9.092863
-11.666460 105.981664 -15.291832
-163.211535 79.246480 -14.230783
-408.758577 184.089380 -35.528273
-58.015273 377.177941 -21.723045
40.637429 282.458558 -25.017574
-261.552376 234.699369 -2.937720
-314.148708 222.157781 -32.761693
-32.425465 242.722789 -29.633419
-20.594209 255.124233 -28.452927
101.265089 212.875213 -15.190883
25.100136 231.844409 -15.918204
-379.562604 149.683374 -6.703291
81.230246 222.944203 -16.261974
-16.147886 323.180572 -28.090411
-28.245203 110.585795 -20.785818
29.431166 257.496063 -20.511915
-269.768619 147.733212 -3.593126
-104.083848 374.484065 -11.872310
-17.503530 199.609151 -18.633875
-16.420306 81.359161 -23.239669
4.693957 185.605264 -27.158370
-270.617235 228.280744 -35.284669
73.631745 278.251773 -20.531144
144.864230 193.095841 -18.084609
-86.831886 131.876827 -32.168911
-44.538573 191.299622 -22.666067
-304.534707 227.639266 -2.681744
-341.400134 218.957727 -2.385536
-220.802277 267.577261 -10.114133
-68.881300 336.380643 -30.848932
-77.172466 60.009310 -9.497812
-77.706605 135.458456 -31.738872
-388.496152 311.640665 -12.251702
-267.614965 297.297765 -23.499844
-433.162148 176.972144 -26.655565
-411.744526 247.704432 -19.298361
-25.017973 256.018803 -13.039254
-313.933707 179.125956 -24.472767
110.424713 190.567810 -20.186856
-401.169322 243.835643 -19.490597
-30.889821 49.692741 -21.071949
-15.187796 111.845819 -24.538935
-502.599288 192.112829 -10.314911
-253.933512 332.142241 -3.426428
-190.730916 175.995421 -23.345895
-93.569552 258.080190 -7.186808
-73.623765 263.417438 -31.930467
17.308326 229.995455 -24.439020
-22.418791 310.334123 -13.235407
-462.377648 289.902250 -6.157230
-258.602434 212.715932 -27.342793
-301.717270 69.440525 -36.009569
-180.128381 154.751851 -6.760601
46.250544 303.442896 -15.795597
-5.400440 92.809870 -20.096187
-15.410558 243.384510 -10.475430
-262.623641 326.858735 -33.936277
-242.203685 132.597358 -17.896778
-30.286635 239.847304 -10.051653
-114.858684 277.784795 -23.761715
-109.602111 52.518039 -32.438296
-325.048050 104.366454 -4.633267
-440.678069 213.063263 -4.976026
45.414031 285.566559 -13.895450
-9.949053 91.676411 -16.282005
-140.693219 172.793001 -27.156335
-55.589508 161.030747 -30.883592
-157.086284 171.382288 -9.078319
38.420693 235.871704 -20.014126
-101.403654 382.987240 -23.293183
-451.648899 211.245916 -3.514125
-41.924052 220.372311 -20.305829
-65.501756 262.135814 -30.786861
-111.458185 160.882878 -32.390900
117.750228 192.697764 -17.482570
73.265324 240.848225 -14.982715
-97.045465 377.989064 -11.144624
-90.683811 18.301904 -23.505217
-32.983700 265.948876 -11.912215
-69.407634 153.701508 -31.430499
-82.043515 157.246625 -32.767654
-59.646366 61.286999 -13.285323
-50.542015 337.552719 -8.462174
131.083135 185.993321 -19.045448
-17.662628 271.144751 -17.337911
-41.602379 362.868238 -25.363610
-405.353652 301.504525 -13.365027
-106.513287 20.911245 -14.903365
-415.593132 181.520196 -32.767041
-314.050698 220.475296 -2.829562
-327.017794 220.065847 -5.361669
-7.214939 243.133152 -11.730131
-404.750881 301.708936 -13.383936
-4.985493 291.311999 -25.174145
-289.934106 288.848143 -21.768366
-268.109005 82.230206 -6.634765
-9.588222 243.820853 -11.977295
-47.193374 313.632342 -11.654405
-28.950424 222.713648 -24.349547
-83.977681 26.165951 -14.122753
-161.448529 28.845125 -13.968726
-457.856864 291.344797 -19.742800
-132.977185 68.234568 -29.005092
90.122966 231.094238 -19.067558
-234.584274 246.527209 -6.663508
-103.410762 173.731792 -15.017794
-24.139494 234.171719 -12.108227
-521.485954 274.409373 -37.159679
-51.944538 219.547323 -20.328038
-6.961179 247.314004 -11.085460
117.368186 208.544982 -22.084889
57.707337 230.859903 -24.477208
-73.201082 340.315544 -32.030628
-99.930047 156.911739 -7.753054
-36.392642 354.112081 -13.706457
-220.042991 45.112208 -27.067191
35.879526 302.868516 -25.791014
-8.096850 318.509540 -27.577164
-311.614233 333.617394 -17.525750
-372.190026 177.009052 -19.914721
-392.567893 271.305094 -2.980220
-267.812566 298.986133 -24.704640
-73.970780 166.338583 -29.434400
51.648965 200.093780 -15.926910
2.335544 242.688247 -27.564944
-297.304165 315.448125 -2.781133
-30.892638 160.297582 -27.855714
159.486382 179.194114 -20.508693
-53.593632 31.970892 -15.401343
-44.051072 138.132974 -14.173297
-113.014644 53.777784 -32.860807
76.226498 237.984378 -23.874338
-57.821485 272.469840 -27.976205
-247.046333 330.281674 -34.822657
-70.330917 139.623621 -30.593143
-109.517540 23.711567 -10.628493
164.010775 179.468547 -21.300784
-294.884669 94.535737 -4.922838
-208.380087 316.629987 -12.820408
-1.864916 120.357550 -17.306453
-448.084030 183.058039 -2.355874
148.752795 194.257123 -19.070728
102.727350 217.046555 -19.971178
5.269576 292.620982 -19.643289
68.746498 288.576452 -20.552430
-91.983711 42.610579 -31.981944
69.083171 202.526047 -23.856686
-88.206124 172.364133 -14.954162
-32.806116 245.568184 -29.561002
-34.666546 179.949042 -12.791653
-318.455109 70.647508 -34.637643
27.051478 257.384586 -15.318600
-373.072227 183.000259 -30.071634
-327.007451 100.316927 -34.304069
-43.048675 218.716148 -22.746853
134.628378 201.287815 -16.986649
-174.720192 39.110005 -19.777232
-59.718762 230.544414 -28.632371
-285.824403 220.003214 -36.086102
-95.655581 18.753959 -23.989905
-168.108577 173.463213 -8.588241
-97.497493 122.436652 -29.685574
-247.649767 248.065748 -3.353647
-236.426276 227.875172 -36.008073
-33.871850 141.982629 -18.389316
-305.086945 73.342055 -13.388158
-287.379419 336.580108 -6.868764
-57.339525 184.730761 -24.011139
-334.125552 223.003628 -33.153333
-239.728942 221.387558 -18.814007
-86.036068 368.596839 -8.546532
-269.269165 79.259257 -34.653773
-90.833191 240.321162 -7.481849
-122.763689 170.361336 -28.896050
-62.901918 174.809790 -10.945329
76.355728 239.900005 -22.174656
-356.155011 212.017068 -29.802352
-67.100560 238.107225 -31.511139
-89.506767 382.184067 -14.511658
-169.947488 55.512043 -6.772974
-301.730413 138.350014 -34.902701
-40.802015 236.006097 -9.710238
183.892748 192.790188 -17.305180
-17.640973 346.721486 -17.790074
-39.090086 365.984897 -21.711079
68.557172 289.931957 -18.662787
-321.914653 175.384596 -4.818524
-248.066907 217.827332 -23.945141
-458.337495 293.336367 -31.934354
-348.173095 285.260233 -36.968993
-139.594460 239.300308 -6.718515
11.003408 228.048194 -17.834395
-258.572023 233.807912 -3.473723
-11.467080 119.187805 -21.761593
113.428793 209.528201 -15.388034
55.024140 277.165933 -15.949354
-9.045956 116.008819 -16.427427
-276.847849 171.588943 -36.824363
-498.472174 188.330019 -24.023579
-55.057136 175.291813 -27.997847
-356.970492 250.681382 -3.844374
48.219641 287.870697 -25.391826
-406.145872 126.385049 -36.435424
47.817831 211.254138 -24.737457
-282.715762 174.924576 -12.661216
40.658206 211.738746 -22.202086
-376.102719 177.010132 -26.654526
-117.584177 169.211074 -27.819372
21.341574 186.488134 -22.846856
58.672633 295.211323 -23.081701
21.658571 248.790826 -26.977014
39.311684 285.617862 -26.293017
48.712871 282.670547 -25.095053
-102.656536 49.623318 -32.163294
47.716196 303.089693 -23.055989
-124.638234 169.032849 -9.644377
-340.818543 141.954173 -34.502602
-51.064999 65.505697 -28.468182
-304.354638 328.140633 -4.323771
-70.549953 327.853436 -27.336095
-282.480658 255.083957 -32.346423
-68.469695 341.871723 -7.906538
25.689198 204.640203 -13.829831
195.679821 197.341346 -19.414363
-503.056761 193.566000 -5.470628
-390.750426 95.899344 -33.721932
-66.452696 240.458512 -31.952434
-2.447822 116.588990 -16.828235
-327.126138 142.877636 -32.281021
-118.469694 218.160494 -21.670815
-466.280677 211.509732 -4.668292
-375.465388 215.108513 -12.650301
-157.606473 72.932860 -24.409820
-157.742177 322.309041 -8.165385
185.664061 196.184555 -17.841766
-117.211508 239.908115 -6.770807
-64.527975 150.570005 -31.877328
-38.356509 194.263727 -23.781370
-365.842239 310.816475 -20.004791
-327.436827 101.473582 -33.706224
-26.220606 337.397252 -28.046021
-53.978183 147.691792 -29.798586
-453.866130 212.001350 -36.504105
-366.342651 307.704031 -26.666846
-26.873959 110.893862 -18.686624
-6.013562 108.565288 -16.256635
-429.004866 213.432440 -3.993904
-82.575455 159.668365 -31.792804
-240.121226 155.355786 -3.844851
65.657671 291.471610 -21.242617
21.006389 235.195916 -13.680426
-66.428520 258.002314 -32.307697
-19.520368 261.405732 -11.749525
-87.490461 235.090560 -32.357629
-133.057708 377.588682 -9.996726
-316.368206 176.839314 -35.688440
172.162117 193.240536 -16.557613
-267.348556 168.834184 -3.565118
-121.751658 31.688495 -32.637804
88.731793 199.445866 -21.101028
-72.356997 168.173248 -12.414760
-361.731311 215.190973 -2.856952
-353.610401 177.766385 -5.242729
-133.042348 27.618757 -31.175347
-37.043364 84.229288 -27.428368
-271.346519 228.490682 -37.753757
-39.524226 74.332038 -27.396145
-295.427974 219.298184 -31.491327
-82.607325 241.563274 -32.998708
-209.239305 146.516740 -6.022220
75.399970 238.286316 -23.645214
-38.341549 267.656575 -10.996922
-377.457405 217.009087 -32.908287
-53.447780 62.943727 -13.025518
-123.965192 377.745292 -27.706942
-308.920065 92.860948 -34.174655
-132.204418 169.260155 -27.268321
-328.663013 309.908597 -2.448631
-275.731356 254.748114 -19.594804
-124.971560 221.559681 -28.534696
-130.517324 225.044591 -8.859710
1.931840 194.614482 -13.370714
-91.642974 47.582323 -31.750280
-498.644653 278.544691 -6.636440
-272.549298 177.818951 -17.443323
-206.475203 339.046752 -6.037926
-424.570194 217.798086 -26.554898
-180.996288 34.124461 -8.710821
55.878272 299.999495 -18.574431
-65.892401 337.693536 -8.202185
-76.184610 354.717887 -31.946854
97.865053 222.910608 -20.330936
-1.025555 118.830903 -18.153144
-84.147626 372.525576 -9.137682
43.959536 252.548782 -25.948373
-382.069313 88.055056 -32.138795
-128.901854 20.456343 -14.567189
-394.437716 208.331726 -28.293211
-265.352298 254.625908 -35.936087
-338.412755 141.324345 -26.488072
-79.403873 142.834951 -7.609351
-355.945040 211.313038 -29.598438
-352.483108 217.449783 -5.409781
-17.351456 197.762058 -14.034313
-80.946907 341.354064 -32.753953
118.430233 188.867955 -22.393997
-337.185353 209.920662 -22.628816
-21.394357 322.091643 -11.492792
-182.701608 62.592605 -6.747719
-93.583553 168.845441 -10.713422
45.796945 305.439349 -17.453414
-9.247786 106.403161 -23.468982
-52.251066 61.437573 -10.951207
-165.588501 37.017670 -7.870808
-54.123446 68.849989 -12.754738
-502.161839 193.077175 -17.359320
-18.339836 343.862327 -25.270870
-55.629189 279.331326 -15.103990
160.525445 192.207367 -18.331846
-32.035713 363.718742 -24.335410
-364.523658 78.838511 -11.415245
-47.699730 339.358007 -29.944843
-482.793590 211.919718 -37.864823
-22.431176 199.791826 -22.960105
-273.839213 178.418147 -10.578674
-52.614539 80.135344 -19.027001
-257.621089 233.798955 -34.324936
-102.951163 50.161525 -7.966711
-305.272627 335.192839 -35.044600
-167.953722 166.566520 -26.226617
-424.124711 179.396095 -5.680516
64.557950 233.958421 -13.592535
-460.407752 110.938735 -26.420391
-264.796609 96.473935 -23.899264
-299.068275 333.325330 -36.057407
-2.400350 315.496838 -27.252155
-87.345204 48.153103 -8.448243
-88.511343 235.756955 -8.040037
-8.962722 121.298035 -16.668523
-43.545254 231.414666 -10.158188
146.052964 182.850394 -20.995620
-218.346296 176.737937 -7.608017
-92.397074 125.990345 -31.217945
-173.856603 40.119667 -13.174801
-463.517671 289.988542 -13.096676
46.880954 210.669127 -25.789312
-241.760750 61.714617 -33.170585
-64.548627 180.069341 -17.223357
-273.041092 299.402622 -11.638575
-352.166471 212.551584 -11.158027
47.038786 210.679776 -25.837391
-133.759026 274.524485 -30.533362
-254.786400 72.635199 -35.806304
-103.070331 357.127738 -7.094082
78.031018 225.461489 -24.969144
-162.664682 173.397561 -9.258838
-124.658767 222.251251 -29.689757
-15.591730 189.474321 -27.831425
-208.496930 238.659290 -6.007463
-15.054854 89.617600 -14.915461
112.347942 211.309236 -22.099375
-202.758106 179.006990 -28.307321
-136.083744 24.599432 -10.585761
148.941802 197.229172 -16.387293
-259.754212 131.453347 -23.691987
-502.137726 194.000617 -18.200685
-340.916253 219.305805 -36.269242
-65.516421 172.356143 -10.596597
-50.745739 187.008579 -24.593580
60.306713 273.549881 -17.595039
-283.254163 171.511090 -35.504157
-0.246321 114.542104 -20.775550
-291.308795 297.784089 -31.839107
167.159409 195.824643 -19.701174
-15.293915 111.359661 -24.802482
-407.827930 185.552619 -22.432857
-57.271479 161.104309 -31.195061
-71.230659 130.376576 -9.402108
-72.884360 57.418916 -9.241628
64.293014 292.230357 -22.273114
-264.342970 233.376194 -37.033212
-259.447471 244.436760 -3.069992
-49.471051 60.097856 -11.527226
-80.899293 142.523536 -32.832148
-253.194244 181.507900 -27.112024
-305.750887 232.409810 -36.837225
-59.937409 244.508656 -31.810321
-219.837911 160.158747 -6.335083
-52.877296 182.858014 -18.800964
-12.366518 116.402247 -15.957550
-198.195205 170.753177 -7.423849
-404.073953 93.717054 -32.111194
-67.810218 337.842597 -31.430290
-53.837697 228.395423 -12.447139
-242.996141 222.782587 -35.538073
-388.761103 216.196131 -5.646237
-59.711557 32.323609 -14.513926
-126.665171 39.995931 -7.321229
13.343474 202.263983 -14.379570
-257.704938 241.525512 -35.019432
-50.426065 139.886338 -11.495808
-289.919094 308.966727 -37.644467
-110.181517 342.255716 -6.821599
-292.265654 332.691147 -35.930905
-193.856742 35.845617 -8.473310
-80.020952 325.644504 -24.257920
-69.389997 54.603359 -9.347504
-240.665381 165.675790 -3.690994
-81.213682 347.499919 -32.636479
-33.730301 232.864107 -10.110886
-409.368548 212.519584 -19.352896
-320.211896 321.627577 -37.423126
-54.953563 168.106393 -8.949517
-300.048865 171.995374 -3.081483
-0.801457 299.469950 -27.431424
-94.817690 373.390662 -30.416459
49.882660 250.536384 -25.563044
-360.160390 211.594036 -29.839234
-87.106962 372.011596 -30.238678
-350.071873 182.604376 -29.701748
-110.310156 223.778001 -9.745988
20.147377 311.925397 -25.537577
-0.664539 326.778827 -22.380165
-125.091383 377.767147 -27.377729
-155.378451 26.683931 -29.735789
-311.240510 72.389866 -12.910544
-15.735159 83.563917 -15.332215
-287.625014 133.691908 -9.577498
-64.818677 63.385631 -9.517211
-274.720386 296.236256 -10.164886
210.392763 197.391548 -20.222457
</DataArray>
</Points>
<PointData>
<DataArray NumberOfComponents='1' type='Int32' Name='ParticleType' format='ascii'>
1
1
1
1
1
1
1
1
1
1
1
1
1
1
1
1
1
1
1
1
1
1
1
1
1
1
1
1
1
1
1
1
1
1
1
1
1
1
1
1
1
1
1
1
1
1
1
1
1
1
1
1
1
1
1
1
1
1
1
1
1
1
1
1
1
1
1
1
1
1
1
1
1
1
1
1
1
1
1
1
1
1
1
1
1
1
1
1
1
1
1
1
1
1
1
1
1
1
1
1
1
1
1
1
1
1
1
1
1
1
1
1
1
1
1
1
1
1
1
1
1
1
1
1
1
1
1
1
1
1
1
1
1
1
1
1
1
1
1
1
1
1
1
1
1
1
1
1
1
1
1
1
1
1
1
1
1
1
1
1
1
1
1
1
1
1
1
1
1
1
1
1
1
1
1
1
1
1
1
1
1
1
1
1
1
1
1
1
1
1
1
1
1
1
1
1
1
1
1
1
1
1
1
1
1
1
1
1
1
1
1
1
1
1
1
1
1
1
1
1
1
1
1
1
1
1
1
1
1
1
1
1
1
1
1
1
1
1
1
1
1
1
1
1
1
1
1
1
1
1
1
1
1
1
1
1
1
1
1
1
1
1
1
1
1
1
1
1
1
1
1
1
1
1
1
1
1
1
1
1
1
1
1
1
1
1
1
1
1
1
1
1
1
1
1
1
1
1
1
1
1
1
1
1
1
1
1
1
1
1
1
1
1
1
1
1
1
1
1
1
1
1
1
1
1
1
1
1
1
1
1
1
1
1
1
1
1
1
1
1
1
1
1
1
1
1
1
1
1
1
1
1
1
1
1
1
1
1
1
1
1
1
1
1
1
1
1
1
1
1
1
1
1
1
1
1
1
1
1
1
1
1
1
1
1
1
1
1
1
1
1
1
1
1
1
1
1
1
1
1
1
1
1
1
1
1
1
1
1
1
1
1
1
1
1
1
1
1
1
1
1
1
1
1
1
1
1
1
1
1
1
1
1
1
1
1
1
1
1
1
1
1
1
1
1
1
1
1
1
1
1
1
1
1
1
1
1
1
1
1
1
1
1
1
1
1
1
1
1
1
1
1
1
1
1
1
1
1
1
1
1
1
1
1
1
1
1
1
1
1
1
1
1
1
1
1
1
1
1
1
</DataArray>
<DataArray NumberOfComponents='1' type='Int32' Name='ParticleID' format='ascii'>
0
1
2
3
4
5
6
7
8
9
10
11
12
13
14
15
16
17
18
19
20
21
22
23
24
25
26
27
28
29
30
31
32
33
34
35
36
37
38
39
40
41
42
43
44
45
46
47
48
49
50
51
52
53
54
55
56
57
58
59
60
61
62
63
64
65
66
67
68
69
70
71
72
73
74
75
76
77
78
79
80
81
82
83
84
85
86
87
88
89
90
91
92
93
94
95
96
97
98
99
100
101
102
103
104
105
106
107
108
109
110
111
112
113
114
115
116
117
118
119
120
121
122
123
124
125
126
127
128
129
130
131
132
133
134
135
136
137
138
139
140
141
142
143
144
145
146
147
148
149
150
151
152
153
154
155
156
157
158
159
160
161
162
163
164
165
166
167
168
169
170
171
172
173
174
175
176
177
178
179
180
181
182
183
184
185
186
187
188
189
190
191
192
193
194
195
196
197
198
199
200
201
202
203
204
205
206
207
208
209
210
211
212
213
214
215
216
217
218
219
220
221
222
223
224
225
226
227
228
229
230
231
232
233
234
235
236
237
238
239
240
241
242
243
244
245
246
247
248
249
250
251
252
253
254
255
256
257
258
259
260
261
262
263
264
265
266
267
268
269
270
271
272
273
274
275
276
277
278
279
280
281
282
283
284
285
286
287
288
289
290
291
292
293
294
295
296
297
298
299
300
301
302
303
304
305
306
307
308
309
310
311
312
313
314
315
316
317
318
319
320
321
322
323
324
325
326
327
328
329
330
331
332
333
334
335
336
337
338
339
340
341
342
343
344
345
346
347
348
349
350
351
352
353
354
355
356
357
358
359
360
361
362
363
364
365
366
367
368
369
370
371
372
373
374
375
376
377
378
379
380
381
382
383
384
385
386
387
388
389
390
391
392
393
394
395
396
397
398
399
400
401
402
403
404
405
406
407
408
409
410
411
412
413
414
415
416
417
418
419
420
421
422
423
424
425
426
427
428
429
430
431
432
433
434
435
436
437
438
439
440
441
442
443
444
445
446
447
448
449
450
451
452
453
454
455
456
457
458
459
460
461
462
463
464
465
466
467
468
469
470
471
472
473
474
475
476
477
478
479
480
481
482
483
484
485
486
487
488
489
490
491
492
493
494
495
496
497
498
499
</DataArray>
<DataArray NumberOfComponents='1' type='Int8' Name='IsActive' format='ascii'>
1
1
1
1
1
1
1
1
1
1
1
1
1
1
1
1
1
1
1
1
1
1
1
1
1
1
1
1
1
1
1
1
1
1
1
1
1
1
1
1
1
1
1
1
1
1
1
1
1
1
1
1
1
1
1
1
1
1
1
1
1
1
1
1
1
1
1
1
1
1
1
1
1
1
1
1
1
1
1
1
1
1
1
1
1
1
1
1
1
1
1
1
1
1
1
1
1
1
1
1
1
1
1
1
1
1
1
1
1
1
1
1
1
1
1
1
1
1
1
1
1
1
1
1
1
1
1
1
1
1
1
1
1
1
1
1
1
1
1
1
1
1
1
1
1
1
1
1
1
1
1
1
1
1
1
1
1
1
1
1
1
1
1
1
1
1
1
1
1
1
1
1
1
1
1
1
1
1
1
1
1
1
1
1
1
1
1
1
1
1
1
1
1
1
1
1
1
1
1
1
1
1
1
1
1
1
1
1
1
1
1
1
1
1
1
1
1
1
1
1
1
1
1
1
1
1
1
1
1
1
1
1
1
1
1
1
1
1
1
1
1
1
1
1
1
1
1
1
1
1
1
1
1
1
1
1
1
1
1
1
1
1
1
1
1
1
1
1
1
1
1
1
1
1
1
1
1
1
1
1
1
1
1
1
1
1
1
1
1
1
1
1
1
1
1
1
1
1
1
1
1
1
1
1
1
1
1
1
1
1
1
1
1
1
1
1
1
1
1
1
1
1
1
1
1
1
1
1
1
1
1
1
1
1
1
1
1
1
1
1
1
1
1
1
1
1
1
1
1
1
1
1
1
1
1
1
1
1
1
1
1
1
1
1
1
1
1
1
1
1
1
1
1
1
1
1
1
1
1
1
1
1
1
1
1
1
1
1
1
1
1
1
1
1
1
1
1
1
1
1
1
1
1
1
1
1
1
1
1
1
1
1
1
1
1
1
1
1
1
1
1
1
1
1
1
1
1
1
1
1
1
1
1
1
1
1
1
1
1
1
1
1
1
1
1
1
1
1
1
1
1
1
1
1
1
1
1
1
1
1
1
1
1
1
1
1
1
1
1
1
1
1
1
1
1
1
1
1
1
1
1
1
1
1
1
1
1
1
1
1
1
1
1
1
1
1
1
1
1
1
</DataArray>
<DataArray NumberOfComponents='1' type='Int32' Name='ParticleTetID' format='ascii'>
3188
17183
7831
6341
34209
12818
2822
6645
3188
6320
3487
7592
12872
18847
10461
29996
23801
11528
5294
14175
32928
17210
28198
13238
29995
44145
11117
32784
13876
2379
39192
5006
1625
6251
3949
23459
2928
11367
22010
14215
11091
13320
17315
2713
35289
13282
17333
35088
36010
1085
24612
18613
5893
12275
2270
4107
1855
10850
29835
492
15065
26610
2344
1282
2101
8441
9085
29995
15843
5712
11454
16811
749
26560
21528
7466
14090
17346
48408
26666
6609
31508
5161
693
28233
11846
11723
656
1307
30468
18933
29997
38690
3487
14447
810
12962
8447
6998
8176
2588
10121
6707
3808
3698
17338
7247
28161
2006
1161
19972
2273
12008
9299
10551
15043
26667
15179
7832
7554
9591
525
27818
13995
6251
12687
6776
1085
10990
22136
6266
3439
26556
13992
10220
24008
10209
25893
14411
11414
14517
16375
4117
41155
30230
11722
16983
17663
16394
14773
17932
20235
31327
18799
4511
3588
12374
16808
7452
10765
5872
3588
12898
6725
17317
5872
23368
14068
2762
14030
11059
10596
31507
13465
888
1084
10690
21231
5873
40709
30825
2677
11633
4506
9642
36010
11532
8054
1069
8336
6707
15114
32390
30450
13860
8636
34282
15470
10140
24205
30232
21108
12023
2587
11164
35291
8552
8969
11365
11378
38689
48409
26611
29835
11137
41373
20762
22657
16330
10005
34476
1076
6279
14519
41587
6937
2514
9539
16985
9381
3360
13250
4300
115
21444
9759
8273
11120
7478
633
17331
12495
5035
20398
30233
12884
16357
3498
2433
6855
17267
36042
9061
16013
29834
11144
9551
7843
6047
2469
31814
21530
14175
42650
29868
14174
9359
19217
13062
5059
26561
2213
32391
9346
31923
1072
1814
27317
29837
34482
26560
29873
11912
27821
5026
6063
23990
18740
22782
6368
6989
42828
31777
2270
4191
16357
14173
6763
3899
5761
5279
11457
7025
28304
18003
16393
17182
7983
6279
13134
12110
11429
7986
692
5714
3908
14773
15986
29835
26664
16375
17339
12505
2344
7251
36044
19532
11191
26235
15107
3385
13159
2659
18732
18934
22620
7448
12505
3313
30232
17662
5288
20470
3288
6477
5034
56
8395
17384
2075
32784
11138
7921
7334
793
13276
7761
27818
6989
11677
35091
11365
635
34210
4369
3068
15440
8403
6058
5315
12884
12872
654
4765
44433
11117
3514
8085
20757
26395
5715
20471
6933
20470
2276
9064
13094
39194
4511
7583
17256
15370
659
7331
20419
21543
11901
9915
9082
12241
28392
7624
6545
9917
11532
11777
12497
14172
17267
36711
7365
3361
6934
7835
31924
15925
21716
8716
12875
31924
4351
15171
16221
33797
9383
2084
3252
2989
96
42653
7266
3065
33828
6905
2276
12977
21317
14446
29923
9357
5717
8671
28519
19972
16805
21128
2579
5189
29835
21543
17228
14206
5323
7284
827
2101
3259
13056
14172
9291
2462
6997
21226
9557
24121
1212
11091
32784
17241
12839
13876
18417
9917
9671
999
15843
15985
4765
1282
16262
20608
21118
9324
11480
590
28199
12883
644
13172
12695
32375
11531
3288
13496
7637
1302
6809
5187
8716
34695
</DataArray>
<DataArray NumberOfComponents='3' type='Float32' Name='vels' format='ascii'>
1.258405 0.049407 -0.002767
1.796788 0.861196 -0.001165
0.103178 0.030147 -0.001021
0.194377 0.031346 -0.000776
3.209697 -0.693192 -0.002214
0.775915 -0.093607 0.001596
1.439237 0.941623 -0.000054
0.328034 0.053753 -0.005402
1.404172 0.085366 0.002334
0.668875 0.098355 0.000582
1.313784 0.108705 0.000637
0.055420 -0.016061 0.000559
0.029336 0.000120 -0.002515
1.506742 -0.139750 -0.000984
1.394739 0.023658 0.000138
2.300780 -1.529053 0.002038
1.400377 0.871693 0.000394
2.200276 -1.437670 0.000378
0.018741 0.003115 -0.001168
1.395347 1.611674 -0.000214
8.992525 -3.999368 -0.049004
1.071706 -0.245550 -0.001347
3.498626 -1.482476 0.002629
1.071268 0.106365 0.000422
2.879814 -1.419315 -0.000295
8.551454 -6.256984 0.029301
0.099435 0.000343 0.000691
2.888913 0.988282 -0.001857
0.834721 0.171492 -0.000293
1.448453 0.139267 -0.002884
10.717729 -0.461095 -0.007445
0.920269 -0.054605 -0.000819
1.546791 -0.235770 0.000749
1.577796 -0.029798 -0.000193
3.215510 1.083768 -0.010892
1.374472 -0.167076 -0.000566
2.007112 1.114982 0.000195
1.496903 1.606137 -0.000297
1.480351 -0.006279 -0.002419
0.815011 0.731602 0.000150
1.389378 -0.223299 -0.000626
1.214857 -0.104611 0.000434
1.255896 -0.119765 -0.000430
1.557329 -0.365999 -0.000432
11.322352 -0.280127 -0.002001
0.020018 -0.004602 0.000038
0.597248 -0.134926 -0.000436
5.639260 -3.799809 0.002499
2.409672 -0.628629 0.001613
1.720646 0.041384 -0.000302
2.492900 -0.716945 -0.000010
0.401219 0.049535 -0.000224
2.663749 0.810152 -0.000643
1.239375 0.249041 0.000145
0.002176 -0.005071 0.006480
1.492182 0.002466 -0.000459
1.102427 0.237291 0.000766
0.001132 0.000039 0.002065
2.350515 -1.270342 -0.001828
1.906995 0.255901 0.000990
0.281262 -0.030908 0.001107
2.453236 -0.740587 0.000157
1.864743 0.361011 0.000221
1.922025 0.076797 -0.000742
1.540024 -0.093085 -0.000116
1.015664 0.118756 -0.004854
1.368288 -0.042171 0.002845
2.972547 -1.506789 -0.001692
1.415361 0.379016 -0.000398
1.221060 1.452376 0.000572
1.520041 -0.264497 -0.000252
0.159733 0.003387 -0.007357
1.604782 -0.294363 -0.002846
2.693250 -0.839741 0.002038
0.988363 0.070811 -0.000371
0.153003 0.000127 0.000665
1.813187 -0.080581 -0.000066
1.966852 -0.211150 0.000281
6.776045 -4.174543 0.005573
3.182873 -0.041846 -0.000015
1.509347 -0.213108 -0.005467
5.930512 -2.495764 0.015801
1.105514 -0.939499 -0.000366
1.290394 1.373415 -0.000835
3.173133 -0.687975 -0.000056
1.030086 -0.121573 -0.000173
1.422904 0.006276 0.000606
2.044195 0.893001 0.000164
1.091506 1.487784 0.000087
2.310311 1.184634 -0.000469
1.769420 0.101719 0.000283
2.922276 -1.613243 -0.002642
11.592543 -2.616951 -0.059305
1.355815 0.108786 0.000641
1.536014 0.917823 0.002063
0.993402 0.051451 -0.000831
1.273109 0.047303 -0.003398
1.944896 0.249464 -0.005111
1.824948 -0.659819 0.000257
1.834568 0.489143 0.003082
1.424314 0.218386 -0.000373
0.031814 0.009362 0.000658
0.749902 0.125699 0.001775
0.004066 -0.000035 -0.000459
-0.002214 0.001528 -0.006395
2.082082 -0.251232 0.000649
0.217309 -0.000524 0.001255
9.390357 -4.388460 -0.045531
-0.000114 0.000201 -0.003433
1.126806 0.969276 0.000278
1.261337 1.423385 -0.000058
0.001020 0.000381 0.001065
1.067326 0.247544 -0.001353
1.797716 -0.037826 0.000683
1.422592 -0.037080 0.000040
1.174061 0.087878 0.000849
3.093763 0.101367 -0.001201
1.381386 -0.912429 0.001551
0.009756 0.002865 -0.001101
1.109550 0.012005 0.002278
0.947416 -0.248111 0.001165
1.566194 -0.101565 0.000831
2.347506 -0.605034 -0.001721
1.189314 1.514220 -0.000258
1.767186 0.017059 -0.000234
1.570782 0.401010 0.000034
1.089018 -0.166530 0.002453
1.590309 0.019425 -0.000152
1.720451 0.076890 -0.000514
1.563831 0.004598 -0.000851
0.157746 -0.026724 -0.001984
0.864389 -0.014289 -0.000764
2.459092 -0.842735 0.000402
1.148237 1.476972 -0.000359
1.321713 -0.027682 0.001317
1.780992 0.918478 0.000640
0.649014 -0.003364 -0.000471
3.504647 -0.926325 -0.002846
1.635279 0.020245 -0.000758
0.061452 -0.000123 0.000569
1.548987 0.035807 0.003421
1.323981 -0.035587 0.000087
1.691113 -0.006006 0.001819
10.202460 -4.392551 -0.024506
4.050787 -2.011237 -0.004257
1.804555 0.022249 0.002689
1.556256 0.020193 0.000778
1.566692 -0.168185 0.000390
1.506981 0.488635 -0.000202
1.573371 0.323222 0.000733
1.242726 0.883090 -0.000470
1.482295 -0.856228 -0.000632
11.231460 -2.777284 -0.030028
2.278594 -0.533678 0.000383
1.165804 -0.952059 0.000845
0.040203 0.011862 0.000213
1.784639 -0.076589 0.001490
0.048805 0.000394 -0.002884
0.909157 0.035181 0.000200
1.871686 0.067352 -0.003362
2.294003 -0.035628 -0.000689
0.061030 0.018017 0.000982
2.400705 -0.920525 0.000035
0.507331 0.084630 0.000841
1.205593 -0.240029 0.000332
2.334036 -0.009016 -0.000961
1.282925 -1.064500 -0.003428
2.006130 0.239433 0.000351
1.604486 0.070127 -0.001595
1.752117 -0.448464 -0.000805
0.382591 0.114285 -0.002220
1.062439 -0.061355 0.003724
5.430563 -2.729369 0.006374
1.502502 0.191075 -0.003315
1.692552 0.045189 0.001269
2.090669 -0.007229 0.000021
-0.005181 0.001737 0.000123
1.714276 -0.220518 0.000695
1.947571 -0.098341 0.000184
9.176423 -6.096084 0.019700
4.371752 -0.893819 -0.000626
1.769566 -0.479677 -0.000082
1.816381 0.104766 0.002304
1.198960 -0.828270 0.000340
1.943491 -0.517062 0.000131
2.351546 -0.513474 0.001309
1.960332 -1.211782 -0.000173
0.627530 0.182289 0.000640
0.116226 -0.000106 -0.001571
0.055251 0.008743 -0.001240
0.219259 0.036228 0.000617
1.819342 0.581770 -0.000175
4.637286 1.149985 0.003645
1.901222 -0.211127 0.000166
0.993864 0.226968 0.000123
1.667592 1.092114 -0.000867
11.007931 -0.309869 -0.010589
1.217230 0.253182 0.000343
1.604434 0.962328 -0.000671
1.381765 -0.013540 -0.001130
3.836683 -2.178125 -0.006170
1.433195 0.031779 0.001498
0.499445 0.115997 -0.000482
1.166857 0.340110 -0.000921
1.940007 -0.126098 0.001192
10.671853 -0.232364 -0.007278
1.230243 -0.239166 -0.000490
2.097082 0.390725 0.013198
1.528741 1.625322 -0.000205
0.355406 -0.003729 -0.000172
11.423273 -1.284785 -0.002308
8.919652 -4.577269 -0.012191
2.480692 -0.874156 -0.000196
2.348008 -1.333587 -0.001864
1.658827 0.077850 -0.000651
6.339609 -0.561897 0.011409
1.560464 0.098976 0.007747
1.270197 -0.063919 0.000578