<VTKFile type='UnstructuredGrid' version='1.0' byte_order='LittleEndian' header_type='UInt64'>
<UnstructuredGrid>
<Piece NumberOfCells='500' NumberOfPoints='500'>
<Points>
<DataArray NumberOfComponents='3' type='Float32' Name='Position' format='ascii'>
-150.059883 235.123221 -4.862737
293.512770 191.105155 -21.552143
-442.452544 293.248842 -6.391778
-226.062810 268.167634 -10.238252
331.001404 261.348313 -22.786991
-366.621135 145.035717 -2.052522
277.679844 184.652719 -28.017374
-121.591058 324.730139 -7.363205
-150.598457 234.263240 -5.205574
-303.354529 254.736723 -4.766962
-3.643471 171.821233 -32.479126
-330.028998 69.142510 -29.930361
-325.198815 220.350707 -6.053108
-185.394633 138.650132 -3.964144
-10.697061 252.260172 -6.830043
280.224116 296.193129 -16.034998
152.445303 184.549085 -9.292519
118.195119 241.647658 -14.179900
-363.221705 281.129397 -6.348387
286.955154 149.495487 -20.816087
504.555560 72.464187 -13.033329
-181.265797 54.011820 -4.330863
347.561379 266.810438 -26.004555
-31.864246 378.174927 -15.788551
289.926775 299.251348 -19.281408
393.844875 251.679147 -4.336681
-277.372639 212.819975 -23.817958
347.380684 65.902917 -13.030689
-224.425495 322.153775 -37.522225
-36.890777 350.747682 -7.032603
471.503705 223.179795 -13.185662
-240.162686 156.394421 -2.624691
23.678835 317.596001 -11.468245
275.100523 218.268415 -11.590294
-385.087491 307.495415 -19.797544
44.775244 230.718373 -9.002975
298.269772 144.992431 -27.720942
306.256490 112.257249 -19.611216
-9.844926 225.978005 -30.835780
17.641434 138.983293 -28.139745
-46.221986 53.037937 -7.129434
-177.826659 147.121406 -4.002737
-185.000961 146.497622 -37.033227
-90.308085 26.648124 -32.486801
466.519887 227.007396 -17.174761
-397.202148 216.199999 -37.712774
-207.023029 64.767259 -35.273534
444.064200 234.804744 -3.639039
243.497811 262.540915 -22.494156
232.008627 200.379261 -9.867498
263.130878 269.708845 -13.494530
-176.343940 248.998947 -6.485070
328.605256 92.000594 -18.912113
-214.119086 326.790962 -37.293706
-499.251527 190.029242 -2.134734
-22.503480 195.013476 -8.021301
-163.082442 337.630869 -5.606091
-486.722538 182.892924 -32.507607
280.478060 289.015091 -20.561702
-4.804913 75.132558 -14.335057
-230.514150 144.325954 -34.053065
258.953254 256.363448 -13.701118
-46.979663 377.575838 -10.197089
251.945136 205.183564 -10.789534
65.021016 233.737225 -31.671066
-250.364233 251.493063 -37.417443
-72.643614 169.100737 -32.690211
277.619310 299.403993 -19.871422
-3.459100 118.155349 -9.078520
233.420931 164.194005 -15.386347
-93.608001 72.401261 -14.164059
-388.893855 184.023587 -35.425696
32.665316 321.287047 -21.782373
281.474891 281.854717 -25.047263
-200.003092 238.866494 -3.027272
-256.173964 223.867023 -32.681924
187.753172 193.161508 -29.681078
241.449859 212.027842 -28.433003
386.001553 244.607494 -4.070126
322.545833 212.428617 -15.814130
-309.432716 140.032369 -6.621155
356.492527 240.058370 -15.520459
102.586621 258.197629 -28.063732
236.848559 170.620386 -20.754714
331.182321 262.227220 -20.669001
-202.424777 140.665814 -3.623382
-13.416032 340.970263 -11.859657
310.277939 135.052859 -18.643032
135.337019 166.309292 -23.107625
324.070598 72.206742 -27.163982
-215.621141 231.778413 -35.307095
292.465587 297.972821 -20.414865
438.697914 233.667009 -4.459911
-1.970279 172.982275 -32.156763
274.172083 200.365605 -22.652054
-252.800839 230.532104 -2.654250
-288.439474 220.995401 -2.397128
-134.653204 279.299185 -10.172551
32.619038 286.241226 -30.821892
-8.487893 126.416650 -9.480068
13.398914 183.668471 -31.768752
-331.311975 327.532430 -12.052992
-219.829773 305.697231 -23.388280
-433.238037 176.982510 -26.665671
-401.520856 244.518981 -19.513164
241.173824 219.687087 -13.235088
-273.805143 178.468546 -24.381596
509.439003 77.303522 -17.921996
-401.482421 243.831689 -19.768620
41.051820 147.866888 -21.098725
249.109074 171.534523 -24.448774
-502.506204 192.147810 -10.228834
-190.036739 347.250713 -3.383223
-79.428649 177.581002 -23.373666
-3.787527 253.600133 -7.134707
30.234802 253.284777 -31.935478
315.510955 198.990030 -24.781116
121.808566 220.703838 -12.355982
-446.234864 294.672259 -6.126280
-183.334333 213.797053 -27.201320
-262.888516 59.006592 -35.971337
-87.409772 153.234821 -6.782572
246.820503 268.237566 -15.146819
180.792928 163.546898 -20.208949
266.971714 216.500929 -10.531733
-205.356839 340.713868 -33.873380
-196.940937 126.044010 -17.813246
231.732742 200.787112 -10.063141
2.758266 268.675887 -23.741430
-31.174222 93.548828 -32.408714
-299.915522 99.797906 -4.719254
-411.761174 212.333755 -4.795770
276.839476 279.481679 -13.811645
191.940981 164.239461 -16.355860
-42.983524 197.978747 -27.090241
81.953919 206.810266 -30.905251
-62.353996 181.135682 -9.049649
346.495380 242.165102 -19.929099
-18.359225 361.169613 -23.349043
-427.416966 210.858750 -3.432698
284.270578 210.112740 -20.272424
51.904809 247.339347 -30.811311
-19.866488 195.263497 -32.414480
480.338862 92.388163 -9.142852
366.796393 262.879065 -11.924255
-18.232036 352.579788 -11.207364
-15.889934 38.920525 -23.487299
207.971482 201.394569 -11.923282
37.618256 204.357524 -31.425187
14.043040 202.945264 -32.766151
10.383855 140.087794 -13.299447
55.124818 287.567126 -8.408039
487.604955 101.612624 -14.046072
279.059559 244.695411 -17.432092
74.906473 302.207713 -25.352487
-403.250294 302.123179 -13.344301
-21.166744 37.798973 -14.903540
-390.783667 181.670906 -32.757153
-260.065622 222.349128 -2.853479
-296.753060 220.707028 -5.362698
282.389108 221.891025 -11.780738
-402.786815 302.302548 -13.348527
257.024888 255.253676 -25.243603
-234.276999 298.635055 -21.725158
-184.109879 65.191864 -6.669501
277.842926 222.202401 -12.004986
80.702466 257.783504 -11.686877
299.178846 207.116242 -24.376959
-8.087298 70.141835 -14.139746
-66.847338 20.786262 -13.912419
-425.223703 301.371305 -19.693495
-51.828752 93.389831 -29.006046
442.419602 253.213409 -4.290018
-133.281017 256.581997 -6.722715
13.185059 214.754862 -15.035496
262.999178 211.353215 -12.134857
-521.672680 274.534366 -37.136752
260.326357 206.167477 -20.300636
280.470384 225.811914 -11.071681
470.992043 250.844177 -15.289761
331.886650 219.846132 -24.618106
27.311593 289.738402 -32.009557
-7.304399 195.371643 -7.772613
81.000669 294.059215 -13.720339
-146.311861 25.408865 -27.001730
222.989992 244.709798 -25.581001
115.977408 233.211167 -27.290575
-239.751128 353.325735 -17.573506
-354.725659 176.834146 -19.958801
-377.303283 273.969740 -3.030850
-229.720803 305.614867 -24.634832
36.855119 211.819974 -29.381908
480.464144 60.856833 -12.333071
295.080854 224.612870 -27.568785
-227.234612 331.050990 -2.787583
230.919836 180.114229 -27.940497
519.949777 84.559436 -18.215784
12.123447 98.631325 -15.401828
231.984498 178.041327 -14.339087
-32.538150 94.296914 -32.815479
371.861789 261.556015 -18.585963
80.454928 239.328823 -28.003745
-190.333752 343.840667 -34.793542
29.992446 192.637942 -30.553161
-28.668165 38.086369 -10.628199
520.249345 82.204204 -17.862596
-250.245223 85.762651 -4.908263
-87.344703 330.722760 -12.524260
297.689857 123.012637 -16.647520
-441.724451 183.013259 -2.295363
474.452040 222.230817 -16.284241
469.259853 228.071613 -14.070244
261.247423 269.135017 -19.738840
252.121455 297.873965 -21.184924
-19.371575 89.084813 -31.963431
489.180771 64.733204 -20.775059
54.020934 215.593585 -15.052717
189.920205 193.872199 -29.625106
242.753303 194.378345 -12.827631
-258.134320 54.162912 -34.543888
323.224302 259.909774 -15.366324
-328.383381 182.220309 -29.935606
-278.894891 91.168871 -34.245875
277.016479 204.900795 -22.749762
473.541246 249.745715 -10.752475
-53.715641 31.077457 -19.699004
96.013843 213.303951 -28.662495
-217.870913 221.772410 -36.043482
-16.906509 39.375663 -23.963301
-92.019397 173.867787 -8.559925
-20.667786 151.157588 -29.626094
-199.647106 252.745134 -3.375898
-180.181956 230.409455 -36.075841
291.836894 168.415753 -18.379448
-150.556078 35.643087 -13.421184
-206.767146 358.454346 -6.934801
208.157505 185.982730 -24.053215
-318.103219 223.398041 -33.184024
-179.497496 222.926122 -18.813706
-8.309153 330.198901 -8.480280
-210.013035 66.553014 -34.692966
7.509717 237.168062 -7.438857
-30.391925 199.584430 -28.888593
79.715245 212.377523 -10.994663
375.620641 262.745837 -14.011602
-299.191964 213.027018 -29.643014
50.476970 233.793372 -31.469826
-12.486088 353.025120 -14.587676
-81.001420 48.192093 -6.774055
-245.980763 130.233579 -34.798979
198.407560 191.871062 -9.748269
481.640177 219.519227 -16.419525
99.023640 283.881848 -17.811071
74.280805 307.181453 -21.693117
264.512404 294.353903 -18.390802
-272.259606 173.533178 -4.838424
-154.853117 219.909507 -23.899953
-403.200069 310.190379 -31.687535
-333.655559 287.958626 -36.919654
-50.711322 237.852738 -6.712231
315.786241 198.529129 -17.823418
-201.690094 237.564911 -3.466114
291.804134 147.744470 -21.391763
464.772316 225.954162 -13.110659
296.311650 286.170048 -15.815186
285.220418 162.101840 -15.709030
-230.205462 169.591707 -36.826647
-498.565768 188.395351 -24.188622
138.779194 188.314057 -28.046286
-323.698117 255.415603 -3.862402
271.259161 282.209651 -25.300174
-405.906414 126.257231 -36.095179
457.231368 68.249433 -18.544864
-255.404854 174.561935 -12.661105
444.676129 71.001213 -12.204629
-356.858089 176.665458 -26.662854
-15.611055 203.450125 -27.827351
445.430996 50.812149 -13.929817
272.485791 279.242177 -22.705108
311.857299 241.878732 -27.073383
272.347706 282.842957 -26.309627
282.293582 283.389099 -25.050071
-27.518017 92.864658 -32.185954
248.840881 270.088820 -22.798222
-28.234626 199.136651 -9.712904
-292.962254 134.915995 -34.408950
17.953568 145.500332 -28.482161
-239.063892 344.680236 -4.346633
46.436606 273.748176 -27.200407
-255.212741 259.198617 -32.234696
29.939192 291.391261 -7.890924
442.877562 68.761926 -5.782091
489.680452 248.391058 -13.328942
-502.968061 193.056388 -4.869436
-329.641378 80.389444 -33.851189
51.225273 234.932318 -31.958512
289.571104 145.356690 -16.199246
-295.840234 138.050082 -32.142629
-28.840305 215.872953 -21.556670
-449.035804 211.521780 -4.723639
-331.075638 215.775957 -12.651724
-52.728345 92.142704 -24.373698
-68.217381 320.926434 -8.081862
411.591621 245.039275 -3.410562
-29.677154 237.297627 -6.720249
46.110175 203.079241 -31.880827
287.961370 197.453908 -23.791448
-347.133880 315.981129 -19.929092
-276.473377 92.208773 -33.643975
91.771627 274.076240 -28.081241
79.227864 201.249907 -29.777260
-443.936719 212.039592 -36.524466
-366.476726 307.634899 -26.669247
241.818089 171.382661 -18.752947
258.622471 170.368100 -15.736854
-392.797255 212.572756 -3.874831
12.271192 202.917512 -31.741748
-167.216760 150.290773 -3.859583
280.614160 286.684447 -20.836588
322.515802 223.342101 -13.649114
46.677096 248.066654 -32.326921
247.037465 222.662705 -11.895797
11.826694 232.962394 -32.331084
-40.162864 373.803994 -10.012378
-243.046077 175.001264 -35.575128
480.674054 222.792569 -15.674501
-201.192292 165.507802 -3.553959
-41.961872 44.322633 -32.565524
501.736594 71.018383 -18.297663
53.029252 214.701096 -12.437474
-319.433989 216.378197 -2.891922
-315.674591 176.983808 -5.295347
-52.818333 29.851247 -31.136641
59.553177 183.719926 -27.274514
-215.747803 231.258637 -37.729273
46.283254 171.806989 -27.339996
-184.951814 222.468023 -31.396625
24.697182 237.823138 -33.027781
-156.423924 141.010561 -5.999129
370.550473 262.066484 -19.794936
173.607838 198.743550 -11.150911
-334.410076 217.950024 -32.707487
17.081915 143.722663 -13.021683
-33.688546 369.266531 -27.719192
-251.301792 80.630806 -34.179715
-25.893816 199.334193 -27.253764
-271.272857 323.444784 -2.522675
-241.609273 259.737026 -19.567364
-38.774167 217.221033 -28.433622
-38.671736 220.944367 -8.910344
337.690690 70.810900 -13.115753
-20.866144 95.442200 -31.771614
-458.254945 289.737117 -6.697204
-175.056668 175.397496 -17.467774
-143.762985 352.397751 -6.073519
-394.220538 216.977971 -26.577183
-104.239864 18.975438 -8.768205
240.831359 279.314390 -18.846527
35.227987 287.730839 -8.181124
23.347635 304.378270 -31.951130
408.969043 250.450544 -3.312583
294.591215 131.395722 -17.495130
-6.696810 333.610574 -9.152774
337.642095 265.420502 -26.186470
-342.060168 77.103755 -32.034944
-37.467909 25.658412 -14.509150
-336.409507 209.168731 -28.207604
-200.520018 263.400970 -35.849605
-325.297164 139.227283 -26.432785
12.992849 189.630266 -7.586472
-299.117992 212.316285 -29.422498
-332.500496 217.824805 -5.532925
303.959687 163.416273 -13.929330
18.533829 291.411578 -32.755730
510.720740 77.208500 -20.530828
-279.653599 210.998868 -22.500744
104.445672 252.260548 -11.474762
-94.273917 51.702969 -6.789457
9.555235 210.158400 -10.775271
236.858875 265.461748 -17.315029
243.093037 167.633115 -23.294942
18.462304 143.344998 -10.895390
-77.241987 27.668529 -7.842333
15.708026 148.853555 -12.831185
-502.086290 193.254235 -17.430095
102.536096 275.586378 -25.237366
161.642797 200.253346 -15.222053
459.604478 229.348996 -15.834463
75.321377 309.117167 -24.361047
-313.277972 64.492895 -11.385770
58.570144 288.811585 -29.937371
-476.874006 212.051112 -37.793326
303.862131 167.311573 -23.117288
-193.884120 176.435402 -10.630085
57.660231 186.787819 -18.847624
-192.965336 237.724442 -34.325272
-27.599915 93.555122 -7.982820
-242.922634 352.378632 -34.961669
-40.665900 190.679234 -26.180672
-406.235571 180.008801 -5.380611
351.022032 245.944067 -13.156259
-440.888065 105.179334 -26.483562
-226.945333 89.801985 -23.870108
-230.490000 351.916596 -35.997328
139.756274 210.694122 -26.875755
-15.068872 102.667330 -8.381645
14.301064 234.480671 -8.052212
294.931796 136.398978 -16.226234
192.293209 190.653841 -10.246492
518.692270 78.296925 -18.907702
-142.303041 175.340391 -7.667314
-10.846217 161.736260 -31.251234
-70.250742 30.149039 -13.100625
-447.602400 294.677895 -13.197085
443.084653 69.168251 -15.344276
-136.692121 36.626496 -33.147591
176.437320 185.797462 -17.380918
-238.337662 305.477451 -11.604555
-309.512036 213.150547 -11.209862
442.277091 69.091686 -15.408400
-54.315297 279.485563 -30.470103
-188.391595 58.301243 -35.847119
-14.085345 317.976004 -7.061202
355.483974 239.578280 -24.508251
-79.045537 175.893320 -9.290045
-36.194172 218.721544 -29.576283
294.430320 182.783854 -27.960795
-137.164391 242.927054 -5.989690
165.287159 167.473162 -14.908405
393.429984 253.228638 -4.759481
-118.702319 178.133183 -28.318561
-48.453886 26.015128 -10.571280
477.132170 222.508059 -14.634047
-210.833213 124.265936 -23.607075
-502.114821 193.958726 -18.140775
-258.137302 221.816745 -36.239203
70.232302 214.063777 -10.674968
248.548679 196.549057 -24.670557
301.439718 289.394913 -17.524771
-233.146794 169.546544 -35.438737
273.275539 168.311042 -19.827864
-264.879597 302.399845 -31.782948
484.634193 250.193951 -11.534311
246.913295 171.086418 -24.752681
-349.434547 184.985366 -22.365750
67.116521 209.467833 -31.209630
26.531613 188.091976 -9.408080
-5.148544 123.247285 -9.272974
278.023539 283.424155 -21.880439
-205.305538 237.229028 -37.044471
-200.770350 249.908099 -3.085116
19.370204 141.657956 -11.511230
15.507676 190.634267 -32.797217
-171.473341 180.266578 -26.939265
-225.493112 237.783415 -36.854896
61.981206 234.541924 -31.789104
-152.710313 156.637526 -6.327575
253.276668 198.338718 -18.798473
282.447757 167.163717 -15.209012
-112.797854 168.967195 -7.436259
-348.262688 78.270549 -32.110517
33.708625 287.783216 -31.420148
148.526949 192.646960 -12.479841
-183.960653 224.332768 -35.433701
-355.463929 216.942611 -5.634876
7.950503 95.774303 -14.487182
-41.839905 53.377220 -7.340834
365.036955 58.850084 -5.924651
-190.205806 247.807235 -35.061465
116.982608 187.060836 -11.534232
-232.187146 320.628826 -37.668925
-25.864588 308.611037 -6.798683
-245.092021 344.828842 -35.877482
-120.271468 18.088571 -8.549745
53.610383 268.126220 -24.216421
-0.605584 123.482660 -9.419163
-176.902467 162.387129 -3.755656
15.535885 297.198925 -32.610600
236.775319 199.573873 -10.195171
-372.100506 212.505176 -19.405397
-259.664477 336.990546 -37.354642
93.645075 204.787769 -8.986116
-246.251007 169.762188 -3.150399
228.111140 223.381334 -27.240567
-12.799989 338.582286 -30.394723
342.709095 265.335240 -25.715596
-299.527697 212.650946 -29.690089
-8.327390 333.369584 -30.215011
-310.187159 181.877452 -29.583556
-15.146931 223.062676 -9.848895
190.503878 215.864020 -24.950063
116.760486 251.566375 -21.993035
-33.384592 369.406237 -27.401901
-74.395341 19.118096 -29.712666
-211.899393 46.494749 -13.023284
146.415354 165.549748 -15.309682
-248.506024 127.926429 -9.609249
-0.391420 132.223933 -9.517132
-233.157937 303.585633 -10.142706
483.943100 217.343660 -17.574908
</DataArray>
</Points>
<PointData>
<DataArray NumberOfComponents='1' type='Int32' Name='ParticleType' format='ascii'>
1
1
1
1
1
1
1
1
1
1
1
1
1
1
1
1
1
1
1
1
1
1
1
1
1
1
1
1
1
1
1
1
1
1
1
1
1
1
1
1
1
1
1
1
1
1
1
1
1
1
1
1
1
1
1
1
1
1
1
1
1
1
1
1
1
1
1
1
1
1
1
1
1
1
1
1
1
1
1
1
1
1
1
1
1
1
1
1
1
1
1
1
1
1
1
1
1
1
1
1
1
1
1
1
1
1
1
1
1
1
1
1
1
1
1
1
1
1
1
1
1
1
1
1
1
1
1
1
1
1
1
1
1
1
1
1
1
1
1
1
1
1
1
1
1
1
1
1
1
1
1
1
1
1
1
1
1
1
1
1
1
1
1
1
1
1
1
1
1
1
1
1
1
1
1
1
1
1
1
1
1
1
1
1
1
1
1
1
1
1
1
1
1
1
1
1
1
1
1
1
1
1
1
1
1
1
1
1
1
1
1
1
1
1
1
1
1
1
1
1
1
1
1
1
1
1
1
1
1
1
1
1
1
1
1
1
1
1
1
1
1
1
1
1
1
1
1
1
1
1
1
1
1
1
1
1
1
1
1
1
1
1
1
1
1
1
1
1
1
1
1
1
1
1
1
1
1
1
1
1
1
1
1
1
1
1
1
1
1
1
1
1
1
1
1
1
1
1
1
1
1
1
1
1
1
1
1
1
1
1
1
1
1
1
1
1
1
1
1
1
1
1
1
1
1
1
1
1
1
1
1
1
1
1
1
1
1
1
1
1
1
1
1
1
1
1
1
1
1
1
1
1
1
1
1
1
1
1
1
1
1
1
1
1
1
1
1
1
1
1
1
1
1
1
1
1
1
1
1
1
1
1
1
1
1
1
1
1
1
1
1
1
1
1
1
1
1
1
1
1
1
1
1
1
1
1
1
1
1
1
1
1
1
1
1
1
1
1
1
1
1
1
1
1
1
1
1
1
1
1
1
1
1
1
1
1
1
1
1
1
1
1
1
1
1
1
1
1
1
1
1
1
1
1
1
1
1
1
1
1
1
1
1
1
1
1
1
1
1
1
1
1
1
1
1
1
1
1
1
1
1
1
1
1
1
1
1
1
1
1
1
1
1
1
1
1
1
1
1
1
</DataArray>
<DataArray NumberOfComponents='1' type='Int32' Name='ParticleID' format='ascii'>
0
1
2
3
4
5
6
7
8
9
10
11
12
13
14
15
16
17
18
19
20
21
22
23
24
25
26
27
28
29
30
31
32
33
34
35
36
37
38
39
40
41
42
43
44
45
46
47
48
49
50
51
52
53
54
55
56
57
58
59
60
61
62
63
64
65
66
67
68
69
70
71
72
73
74
75
76
77
78
79
80
81
82
83
84
85
86
87
88
89
90
91
92
93
94
95
96
97
98
99
100
101
102
103
104
105
106
107
108
109
110
111
112
113
114
115
116
117
118
119
120
121
122
123
124
125
126
127
128
129
130
131
132
133
134
135
136
137
138
139
140
141
142
143
144
145
146
147
148
149
150
151
152
153
154
155
156
157
158
159
160
161
162
163
164
165
166
167
168
169
170
171
172
173
174
175
176
177
178
179
180
181
182
183
184
185
186
187
188
189
190
191
192
193
194
195
196
197
198
199
200
201
202
203
204
205
206
207
208
209
210
211
212
213
214
215
216
217
218
219
220
221
222
223
224
225
226
227
228
229
230
231
232
233
234
235
236
237
238
239
240
241
242
243
244
245
246
247
248
249
250
251
252
253
254
255
256
257
258
259
260
261
262
263
264
265
266
267
268
269
270
271
272
273
274
275
276
277
278
279
280
281
282
283
284
285
286
287
288
289
290
291
292
293
294
295
296
297
298
299
300
301
302
303
304
305
306
307
308
309
310
311
312
313
314
315
316
317
318
319
320
321
322
323
324
325
326
327
328
329
330
331
332
333
334
335
336
337
338
339
340
341
342
343
344
345
346
347
348
349
350
351
352
353
354
355
356
357
358
359
360
361
362
363
364
365
366
367
368
369
370
371
372
373
374
375
376
377
378
379
380
381
382
383
384
385
386
387
388
389
390
391
392
393
394
395
396
397
398
399
400
401
402
403
404
405
406
407
408
409
410
411
412
413
414
415
416
417
418
419
420
421
422
423
424
425
426
427
428
429
430
431
432
433
434
435
436
437
438
439
440
441
442
443
444
445
446
447
448
449
450
451
452
453
454
455
456
457
458
459
460
461
462
463
464
465
466
467
468
469
470
471
472
473
474
475
476
477
478
479
480
481
482
483
484
485
486
487
488
489
490
491
492
493
494
495
496
497
498
499
</DataArray>
<DataArray NumberOfComponents='1' type='Int8' Name='IsActive' format='ascii'>
1
1
1
1
1
1
1
1
1
1
1
1
1
1
1
1
1
1
1
1
1
1
1
1
1
1
1
1
1
1
1
1
1
1
1
1
1
1
1
1
1
1
1
1
1
1
1
1
1
1
1
1
1
1
1
1
1
1
1
1
1
1
1
1
1
1
1
1
1
1
1
1
1
1
1
1
1
1
1
1
1
1
1
1
1
1
1
1
1
1
1
1
1
1
1
1
1
1
1
1
1
1
1
1
1
1
1
1
1
1
1
1
1
1
1
1
1
1
1
1
1
1
1
1
1
1
1
1
1
1
1
1
1
1
1
1
1
1
1
1
1
1
1
1
1
1
1
1
1
1
1
1
1
1
1
1
1
1
1
1
1
1
1
1
1
1
1
1
1
1
1
1
1
1
1
1
1
1
1
1
1
1
1
1
1
1
1
1
1
1
1
1
1
1
1
1
1
1
1
1
1
1
1
1
1
1
1
1
1
1
1
1
1
1
1
1
1
1
1
1
1
1
1
1
1
1
1
1
1
1
1
1
1
1
1
1
1
1
1
1
1
1
1
1
1
1
1
1
1
1
1
1
1
1
1
1
1
1
1
1
1
1
1
1
1
1
1
1
1
1
1
1
1
1
1
1
1
1
1
1
1
1
1
1
1
1
1
1
1
1
1
1
1
1
1
1
1
1
1
1
1
1
1
0
1
1
1
1
1
1
1
1
1
1
1
1
1
1
1
1
1
1
1
1
1
1
1
1
1
1
1
1
1
1
1
1
1
1
1
1
1
1
1
1
1
1
1
1
1
1
1
1
1
1
1
1
1
1
1
1
1
1
1
1
1
1
1
1
1
1
1
1
1
1
1
1
1
1
1
1
1
1
1
1
1
1
1
1
1
1
1
1
1
1
1
1
1
1
1
1
1
1
1
1
1
1
1
1
1
1
1
1
1
1
1
1
1
1
1
1
1
1
1
1
1
1
1
1
1
1
1
1
1
1
1
1
1
1
1
1
1
1
1
1
1
1
1
1
1
1
1
1
1
1
1
1
1
1
1
1
1
1
1
1
1
1
1
1
1
1
1
1
1
1
1
1
1
1
1
1
1
1
1
1
1
1
1
1
1
1
1
1
1
1
1
1
1
1
1
1
</DataArray>
<DataArray NumberOfComponents='1' type='Int32' Name='ParticleTetID' format='ascii'>
1658
33419
12025
6449
37107
5078
42258
4017
1658
6427
12362
8366
10765
3331
6213
29798
36707
40272
5725
94032
71194
3835
34948
1358
29761
121522
7427
32422
1870
4503
54238
15984
27203
31289
10123
30261
46074
41443
5918
31100
14205
523
3347
16987
52190
11950
12941
83449
31311
36975
32550
289
33811
2339
19208
651
4916
10850
29799
14496
13893
29958
1535
32440
28399
13264
19957
29797
14170
42902
2634
16037
24903
29818
2988
14486
27932
32250
82183
48842
6841
51288
43158
24993
37107
3314
10229
26881
48035
42114
2553
29763
83887
12362
36767
14472
9522
4343
24620
11361
30468
8015
8992
3808
2006
32242
7337
69487
2006
41177
25912
2273
1423
22905
6215
25374
41734
25709
12026
7536
18035
5313
33110
50139
28103
807
8845
36977
30485
18734
8551
16256
29886
41948
17184
35492
8266
27979
20513
3908
33237
28202
661
53159
37301
12209
1991
34691
39757
32792
30496
29830
52152
30085
29224
3588
1988
16033
9486
7436
30406
3588
29961
6671
8085
30406
30119
27477
19842
13200
4129
8294
129532
4089
32298
28102
10690
32445
30406
52296
41284
24620
19551
29850
13494
46199
47586
12174
13165
5294
6671
31928
52780
25194
5167
26132
56851
27906
26124
18733
39931
30234
231
27318
3101
67219
15895
994
95442
3368
54242
52188
32551
33939
877
52461
30824
27932
24682
9699
34080
11875
17747
33238
52293
15469
31710
7413
1991
20757
15799
848
286
32623
18816
9849
39123
10777
7532
17805
12941
31811
50
34673
39930
7448
25897
78
11775
6783
27923
51902
37375
29223
29743
9362
13529
3595
9196
2829
41731
2990
38043
52186
29780
38330
4283
19217
31334
6320
35273
2213
52422
7276
55390
13168
5898
53556
35273
32646
35273
29818
877
33113
41
8747
48955
2953
29874
8419
24609
53479
52654
2270
1421
25897
95232
8743
14067
11414
11111
8291
18041
-126563
1083
32396
27479
8035
8583
30612
35490
3454
7986
24991
37518
15428
32790
18362
29819
40452
25897
25996
31819
1354
9287
52891
2521
1166
71198
35015
10766
7238
15476
46452
2555
40890
9518
26671
5798
47473
25565
11119
31090
16014
15171
662
17514
8485
23864
14512
43168
104
11055
7388
15067
15436
11201
39085
26553
24511
132966
95187
12909
37108
11515
17394
11120
10889
6760
32781
7448
11108
46590
25213
69489
7427
43149
11901
32297
34046
24994
37570
489
36652
2276
31763
28518
53036
29225
7637
29839
9161
30934
9293
29168
3183
869
11303
14446
2594
26158
8237
6599
11283
45572
94
31809
38258
27923
67219
10211
12360
1210
12029
53484
11101
36043
8698
7457
53486
13100
9017
15177
51293
18903
23863
29119
2467
26072
127228
5394
15467
52892
6796
2276
9501
34672
25282
32317
4283
95047
8689
52655
27334
13169
41378
27311
11363
29818
3005
3618
37570
32792
9390
3201
28400
11485
32443
25946
1803
12236
24620
38686
9519
12871
32354
14205
85561
1961
32927
5183
24141
2969
1263
29405
11362
1334
26618
24683
5281
12688
27491
14563
33528
10238
35344
7447
17814
7249
6231
89592
47763
16014
2767
5782
26772
6773
11363
6665
51684
</DataArray>
<DataArray NumberOfComponents='3' type='Float32' Name='vels' format='ascii'>
0.617667 0.023482 0.000464
2.732805 -2.465647 -0.004074
0.156802 0.046356 0.003930
0.604640 0.095402 0.000432
2.866182 0.599661 0.019109
0.185114 -0.029704 0.000015
4.145094 -2.456472 0.006996
1.192268 0.092620 0.003150
0.414497 0.013718 0.000623
0.011928 0.001947 -0.002599
1.559275 1.046069 0.000434
1.014469 -0.289665 0.001744
1.420671 0.040684 0.000661
1.361994 -0.135614 0.000006
1.448908 -0.129912 -0.000068
1.482198 1.148647 0.000079
8.220036 -0.632715 0.006266
1.631132 -3.956021 0.217151
0.151588 0.025403 -0.002210
2.781564 -7.873351 -0.027302
2.495028 1.316163 0.003642
0.956000 -0.221267 -0.002258
3.773704 0.165308 0.725067
0.966390 -0.277314 -0.001271
1.279211 1.035242 0.000020
0.003527 -0.021832 0.024049
0.028759 0.000050 0.000119
3.905276 -1.935817 0.654757
0.746057 0.165212 -0.000499
0.712378 -0.520657 -0.000623
1.212613 -0.908535 -0.067436
0.812807 -0.062479 -0.000947
2.224041 -0.571437 -0.001121
2.688133 0.619251 -0.002596
0.201339 0.059558 -0.001963
2.634510 -0.044885 0.004178
2.471724 -10.032769 -0.033246
5.051791 -12.545099 0.110006
2.249522 0.279508 0.000206
1.332838 1.610656 0.000452
0.914553 0.585838 0.000198
1.045533 -0.077951 0.000928
1.297918 -0.130654 -0.000108
1.550816 0.040063 -0.000405
2.115972 -1.204150 -0.561645
0.073213 -0.006025 0.000030
0.534389 -0.115282 -0.000257
14.897576 -2.731306 -2.411047
1.578772 2.422708 -0.004889
5.622668 2.262641 0.000258
1.647084 1.653765 0.000486
0.251634 0.009540 -0.002208
3.133836 -4.894355 0.008964
1.161521 0.259242 0.000440
0.508215 -0.406122 0.025656
1.395751 0.577378 0.000294
0.047095 0.008528 -0.000270
0.004978 0.000066 0.001959
1.649362 1.082583 -0.000333
0.870795 1.325664 0.000231
1.107519 -0.116300 0.000194
2.033847 1.988294 0.000457
1.003300 -0.272530 -0.002138
5.283976 2.559091 -0.005672
2.466496 -1.043808 -0.001346
0.781483 0.092517 -0.000280
1.336975 0.570342 -0.000922
1.664749 1.109404 -0.000279
1.281380 1.357016 -0.000534
4.790785 1.014585 0.094620
1.457751 0.087052 0.004976
0.292656 0.003156 0.014100
2.270438 -0.293349 0.000557
1.736038 1.147465 -0.000268
0.850462 0.058511 0.000037
1.813712 0.070603 0.000011
7.965051 0.210247 -0.007445
4.822698 2.664201 -0.005928
15.929961 -1.276721 3.718628
0.559182 0.396501 0.011267
0.023506 -0.003945 -0.001625
1.935634 0.828295 0.154092
1.816672 -2.523924 0.012473
6.495844 1.339878 0.045331
2.754300 0.784978 0.002841
1.150350 -0.115692 -0.001154
1.096317 -1.207904 -0.000896
2.109592 -9.441926 0.025688
6.366958 -1.150174 -0.055103
3.085064 -4.687618 0.049906
1.106460 0.053540 -0.000209
1.610769 0.953309 0.000866
20.700752 -5.696122 -0.863670
1.487373 0.969100 0.000200
4.874183 -0.248246 -0.002150
0.856833 0.047320 0.000308
0.697373 0.025470 -0.000288
0.415717 0.066016 0.002776
1.679399 -0.472127 0.000891
1.108947 1.157194 0.000277
1.719178 0.867554 0.000507
0.061300 0.017937 -0.000659
2.075797 0.376331 0.002729
-0.003788 -0.000006 -0.000490
-0.003834 -0.000799 -0.006470
4.711079 3.337181 -0.018296
0.030875 -0.000005 0.000010
2.445925 1.412854 0.002574
-0.007690 -0.001100 -0.004586
1.658348 2.180679 0.001144
5.656001 1.379165 0.050342
0.001459 -0.000682 0.001201
0.957574 0.220515 0.000107
1.795314 0.424807 -0.003791
1.473841 -0.086968 0.000081
2.119512 -0.395234 -0.000375
0.166994 -0.366338 -0.026285
4.245304 -4.494636 0.169861
0.025206 0.007392 0.003360
0.989919 0.004879 0.002027
0.364724 -0.091390 0.000027
1.358827 0.189830 0.000573
1.679906 2.156341 -0.003960
7.179251 -0.636673 -0.000064
3.307848 1.026528 0.002032
0.369118 0.100023 -0.001932
1.856153 -0.262176 0.000425
5.696845 2.325328 -0.000464
2.669396 -0.489590 0.000740
0.700879 0.917220 -0.000861
1.303934 -0.244991 -0.001353
0.134815 0.000119 0.004431
2.009523 1.199580 -0.000633
7.225168 -1.117830 0.004911
1.428767 0.696584 0.002102
5.333978 -1.836901 -0.001081
1.276684 1.058274 -0.010499
2.189842 1.121399 0.037881
0.895476 -1.055272 -0.001061
0.573880 -0.012142 -0.000312
4.681129 -0.166348 -0.006107
2.878606 -0.814978 0.002324
1.191387 0.518061 0.000352
1.245813 1.355858 -0.008239
4.010589 -0.608781 1.111735
1.055690 -1.146721 0.001854
0.685074 0.642493 -0.000292
6.573520 1.375028 0.015260
2.718498 0.922978 0.003828
1.746643 0.917941 -0.000172
1.254418 1.312413 0.000632
1.831065 -0.836267 -0.000868
1.440715 1.665175 -0.000253
2.605441 1.437707 -0.002619
1.619330 -0.794136 -0.000859
0.012346 0.003643 0.000036
0.571244 0.549730 0.000579
0.338870 -0.000047 0.002068
0.792690 0.027910 -0.000846
0.016147 0.000058 -0.001196
2.601737 0.929041 -0.000161
0.017760 0.005246 0.000178
2.025616 2.091041 -0.002187
0.135163 0.022234 0.000697
1.432727 -0.294816 0.000628
2.729127 0.729678 -0.000972
2.481852 -1.592216 -0.006412
2.172244 -0.532492 0.000655
0.910736 1.399256 0.000586
1.182695 0.174155 -0.002686
0.265703 0.078778 0.003202
0.482636 0.939230 0.010534
25.053932 -5.210371 -0.429161
1.431731 0.101369 -0.001370
2.977330 0.549326 0.001248
3.552319 1.036639 0.002323
-0.002086 0.001286 0.000130
5.524623 1.394829 0.001585
2.774122 0.972169 -0.001218
3.924665 -0.134976 -0.957099
1.082794 0.832435 -0.011809
1.970680 -0.562266 -0.000108
1.467456 0.539391 -0.000585
1.603280 -1.319786 -0.000163
1.637528 -0.388400 0.000978
1.115770 3.152320 -0.049937
2.494312 -4.763164 0.066739
2.037023 0.559868 -0.003022
0.051065 -0.000022 -0.000659
0.444948 0.076316 0.002152
0.258294 0.042738 0.000829
2.925148 0.599115 0.003017
3.269132 1.206669 -0.007993
2.273963 0.544719 0.006253
1.749473 0.385059 0.001873
5.648520 0.872324 0.002586
1.895535 1.168557 0.000999
0.994161 1.265458 -0.000224
6.810606 1.331033 0.015682
1.007410 1.322390 0.000335
3.184232 -0.643927 3.208427
3.365930 -2.352383 -0.005904
0.707345 0.180182 -0.001071
2.520803 1.073610 -0.001792
0.861729 0.542825 -0.000245
2.236800 1.282461 0.002215
0.617736 -0.124139 0.000351
1.980392 -0.340185 0.003444
3.842559 -10.489058 0.109064
1.205691 0.001714 -0.001948
1.862112 -1.161146 -0.149491
2.685205 -1.199076 -0.493426
2.089514 1.974929 0.003644
0.903969 1.486317 0.000058
0.636265 0.848771 0.001244
3.239625 1.609082 0.000174
5.422732 -0.708614 0.000539
8.531288 0.334956 -0.000024
5.084447 1.826624 0.000605
1.344024 -0.362005 0.001784