<VTKFile type='UnstructuredGrid' version='1.0' byte_order='LittleEndian' header_type='UInt64'>
<UnstructuredGrid>
<Piece NumberOfCells='500' NumberOfPoints='500'>
<Points>
<DataArray NumberOfComponents='3' type='Float32' Name='Position' format='ascii'>
293.969816 215.590316 -4.991612
1029.059357 188.209033 -16.808274
-297.096620 334.692527 -5.968732
73.852672 249.979082 -10.424918
1029.278797 232.304881 -20.074967
-253.211236 128.855650 -2.146521
1029.253611 152.748402 -21.930599
528.932819 250.483568 -5.698093
279.098827 213.832100 -5.130937
-186.348778 271.996020 -5.015962
833.839342 107.105344 -29.466806
-21.385625 20.494797 -29.684399
-233.668302 221.935602 -6.031643
24.231211 188.365013 -4.001929
518.813128 199.249998 -5.056504
534.526694 327.225835 -15.369503
663.352873 169.220283 -6.702498
765.585699 333.065762 -12.226322
-327.998906 286.967824 -6.625403
1029.193912 138.980634 -19.474711
707.513323 136.249407 -13.179544
-0.260402 111.188794 -4.482157
1029.076102 228.539705 -26.569211
279.842653 365.503407 -14.767278
1003.900573 253.509878 -17.334848
1028.990499 208.533237 -16.447437
-7.028498 218.103034 -23.482415
1029.136178 186.426719 -8.694585
-19.884184 304.293047 -37.520971
290.669556 338.978037 -7.137839
568.469979 206.703049 -12.647254
-29.827939 175.122631 -2.632867
525.927975 358.072842 -8.695818
736.122372 220.370802 -9.677182
221.432796 261.048453 -19.835167
588.438189 186.411608 -7.988616
1029.074164 155.183680 -27.112406
1029.321351 153.281068 -16.377951
343.881696 84.388695 -32.620147
1028.982668 142.206514 -26.628187
492.784351 27.961576 -6.284944
238.316673 183.519246 -4.061974
-11.666599 177.905605 -37.003485
365.623129 14.139408 -15.429394
593.113484 214.611882 -17.685194
-308.736341 217.683949 -37.702962
-8.552425 110.893370 -35.187331
654.063211 217.503918 -9.126776
554.756284 346.681129 -22.597400
583.626820 189.154375 -7.094525
881.788512 289.130168 -10.618297
218.365089 204.026530 -6.645053
1029.044092 190.888146 -17.070591
0.002069 298.478460 -37.296325
-491.769758 186.624384 -1.926926
696.545480 165.485794 -8.158395
105.936853 240.638994 -5.475249
-415.600979 183.175505 -31.982333
1006.215048 255.017354 -17.007614
512.740333 5.589512 -11.389879
-11.891477 168.181497 -34.063740
893.341904 287.035084 -10.153686
263.540347 350.320059 -9.573056
654.231802 182.527933 -10.780131
745.701821 224.249913 -28.706418
-36.044806 266.091539 -37.396849
493.097038 93.288343 -36.646422
1029.003818 260.121252 -19.353480
847.269216 94.075433 -7.703361
1029.030335 140.847806 -10.327024
819.222376 99.270400 -10.906735
-361.078301 183.624072 -34.987682
422.743582 386.163063 -3.664093
1029.370072 249.889205 -17.917543
44.284917 237.321363 -3.032620
481.323994 217.743761 -28.382587
646.334864 217.526544 -28.659235
1029.088630 226.583231 -26.791639
569.866834 197.694759 -9.007857
619.959328 181.791763 -13.389732
-35.970635 131.662697 -7.013344
778.406945 184.091564 -13.605135
782.300105 307.613832 -21.716815
1029.275264 140.263570 -17.033113
1029.110714 228.986199 -22.802082
24.283551 188.660459 -3.661759
496.050230 371.517387 -10.527980
1029.150350 191.275146 -16.086105
1029.304192 140.303527 -20.675616
1029.296586 152.742705 -21.728450
-1.247694 235.143186 -35.347994
1029.317875 251.504023 -16.457303
772.405964 181.502910 -14.471055
867.211586 114.297497 -29.315099
1029.213633 188.409014 -16.858498
-26.604474 234.387124 -2.645380
-92.980391 225.537938 -2.493303
538.661581 259.146527 -6.169443
704.867432 320.407647 -23.456292
806.644337 82.432135 -6.827249
907.700871 122.579733 -29.745862
-160.206616 375.745487 -12.146442
523.051770 258.340015 -21.107600
-432.366601 176.907176 -26.665520
-390.674728 245.651190 -19.997956
1029.244989 230.300666 -9.687840
225.805433 190.094568 -24.180466
1029.318341 165.992030 -17.959244
-356.958007 250.212948 -19.785929
1028.977543 140.299234 -17.001177
1029.189046 140.141349 -19.420439
-502.104052 192.301534 -9.894880
35.056637 304.877757 -3.433102
785.083272 175.610064 -20.144523
698.084432 232.324583 -7.761875
865.826495 239.783424 -28.708377
312.948693 157.484971 -27.645238
718.814806 321.415471 -10.419809
-293.779780 338.208152 -5.487589
478.085492 95.197660 -22.428178
-71.093118 24.445211 -35.899227
532.330046 137.723771 -4.961669
673.230062 344.571282 -14.961429
1029.386622 140.349597 -17.517165
604.183685 215.340859 -8.888119
-0.857875 313.218224 -33.829947
377.639320 41.467018 -2.348081
577.119548 212.704298 -6.913893
1029.257480 229.715106 -21.899225
833.131452 90.416475 -28.355573
-136.129875 69.967162 -4.802902
-292.126156 213.484146 -5.176454
907.471231 282.409141 -10.230999
1029.115912 138.104862 -11.754595
850.495262 176.453375 -23.802105
955.793452 154.439691 -27.583541
615.568738 166.380821 -8.224929
698.573630 220.446410 -17.486567
422.237684 386.356569 -3.913509
-296.511654 211.761156 -3.596887
662.545339 180.724659 -20.136870
997.449288 237.249790 -27.232530
497.472341 96.094432 -36.530311
1029.134359 189.002731 -8.993922
1028.982673 228.031097 -11.093356
340.858045 373.972228 -10.577020
474.926089 5.698507 -19.950551
1029.064718 230.128527 -9.890916
936.347114 158.493298 -29.086095
381.472231 52.266270 -10.001146
1029.152980 136.636137 -10.985803
512.970342 326.350388 -6.185463
1029.072949 189.720784 -13.672791
1029.126679 229.823613 -11.368067
673.308358 358.198201 -22.304586
-196.118178 357.963486 -13.165550
638.072753 44.215304 -10.987018
-241.527203 180.626692 -32.056311
-48.281621 221.141818 -2.974060
-97.370537 225.556669 -5.606611
636.741856 220.778038 -12.467189
-197.312843 358.250653 -13.289138
922.549345 272.082482 -18.595486
111.667513 219.082480 -21.433193
220.165500 169.341284 -6.815897
676.385459 217.225585 -13.620793
768.112653 310.710317 -10.119897
315.751928 182.306380 -25.769270
487.818302 3.693489 -13.124838
364.651334 7.409252 -5.188146
-221.556267 359.523402 -19.016855
886.373553 102.872329 -27.717262
1029.312762 229.305865 -15.668280
510.713125 211.997804 -4.566358
835.320505 177.201181 -12.920249
684.430375 178.629634 -12.320982
-521.904615 274.706742 -37.113444
699.841556 172.411316 -19.540271
663.316065 186.283003 -9.618709
1029.259166 229.986926 -17.220021
681.149431 181.018449 -27.289582
541.133477 334.155800 -25.363141
667.140426 164.912404 -8.048711
648.573097 357.229059 -10.064296
90.092757 179.131998 -26.653972
900.740028 301.285079 -23.638134
836.913512 297.424812 -23.118592
220.022633 249.670451 -15.539570
-277.674264 176.112293 -19.928422
-268.501905 293.137865 -3.361407
300.606926 268.317968 -24.460376
979.950119 176.246537 -24.019368
758.207205 141.880794 -12.354619
590.873783 214.425853 -28.517346
-3.309515 309.514804 -2.757319
1029.246652 152.097065 -21.274371
1029.238727 166.185289 -18.220476
514.613488 5.838986 -12.256816
1029.317852 166.310171 -11.196974
836.350361 91.593638 -28.198429
1028.978325 226.681346 -19.098767
1029.070636 229.001683 -26.946571
0.325834 312.690841 -34.898005
776.536421 95.820796 -26.419454
457.856044 4.734037 -6.585987
1029.134247 165.425647 -17.916420
-32.842599 108.325142 -4.855510
589.132565 340.086574 -10.219379
1029.191202 138.906774 -12.100933
-290.266730 181.865373 -2.410763
619.432140 214.781086 -15.910985
1028.987540 207.207378 -15.083185
750.152474 310.286110 -18.664342
1029.083419 261.565138 -18.628778
857.411860 96.004783 -26.892474
1029.125480 163.915666 -20.865933
910.018619 178.425147 -11.970621
585.779212 214.171272 -28.460535
765.901997 176.570876 -11.098028
-81.166347 18.263054 -34.342567
1029.130325 227.908705 -11.363294
-134.103363 179.251630 -29.473744
-136.068158 63.560836 -34.252264
1011.871400 186.850417 -20.870708
1029.089074 228.582486 -11.134421
720.380135 59.884359 -11.861622
658.346692 179.755546 -25.982361
35.544833 225.877343 -35.970887
472.940415 5.706907 -19.947095
592.146338 163.341434 -7.976584
869.981345 113.825674 -28.072999
68.741139 240.940758 -3.287428
39.677804 231.765945 -36.089105
1029.130825 162.909080 -15.085360
570.041132 37.114943 -9.500643
113.841181 271.954919 -6.955239
1002.976782 183.512802 -20.499656
110.810605 206.813342 -33.058538
373.064890 240.439056 -12.921108
497.629138 367.751281 -9.498301
-3.548217 119.270078 -34.791098
577.331907 185.586211 -7.446901
883.215820 176.120795 -26.412195
840.265929 175.998898 -8.966744
1029.088616 227.990706 -18.525192
-59.404966 210.279011 -28.895483
569.238159 197.478326 -29.421006
352.472669 377.320557 -13.110443
500.598423 29.601178 -6.644767
-63.481367 112.755707 -34.300668
657.833382 219.966045 -8.134112
791.916815 218.704093 -16.622352
726.401701 346.144011 -15.037642
656.377386 360.335120 -17.509604
1029.020443 260.195748 -17.082613
-22.567678 201.622087 -4.922987
311.426724 143.735323 -25.082624
-225.103492 360.685610 -30.998307
-182.090550 315.040717 -36.932990
505.294187 199.848009 -6.403622
318.424566 188.531434 -17.883374
65.821093 231.901173 -3.484723
1028.992364 140.724015 -18.226469
696.378838 188.603145 -14.348500
937.260333 267.501631 -12.077754
1028.982169 140.578835 -8.523235
-36.759998 192.804254 -36.826880
-498.820324 188.728122 -24.664245
1028.991480 184.793799 -26.995024
-210.772029 272.216081 -4.144905
945.856006 266.394577 -21.689387
-405.707125 126.120350 -35.822815
1029.055936 181.494904 -18.997324
-97.779399 173.426858 -12.733124
1029.168282 189.604127 -16.148881
-239.767361 175.284002 -26.264327
852.334680 177.662540 -25.835726
745.543948 142.043060 -19.709234
1029.062033 251.332961 -17.754174
651.799060 220.511419 -19.028401
938.098363 268.581252 -21.533148
1029.209896 251.530546 -18.765869
881.871790 101.026700 -27.071208
714.313279 335.112209 -21.857419
627.254016 168.556681 -7.616860
-112.106941 109.107997 -34.133431
874.535532 100.812493 -33.366564
-8.611101 334.868058 -4.317803
1029.052570 231.238678 -23.593649
-48.348464 281.339741 -31.679297
516.607034 311.311984 -6.293574
1029.019086 186.784368 -8.920433
1029.062089 229.606706 -11.842059
-492.477523 185.849503 -3.145255
-83.759005 31.037643 -33.860567
606.384562 184.834603 -29.423753
1029.055737 139.105929 -11.640209
-168.380459 118.322788 -31.724895
699.597428 173.256429 -20.265269
-330.970072 211.397400 -4.619676
-200.118766 217.066423 -12.633001
1028.996143 151.715862 -17.273462
624.778676 260.679367 -6.951908
411.591621 245.039275 -3.410562
550.928105 197.839197 -7.446909
1029.256785 153.702561 -22.613375
932.440555 176.849632 -19.563169
257.393122 331.254644 -20.334454
-112.140122 63.572614 -33.408382
577.310835 343.251845 -24.030511
1015.614757 152.250328 -27.451404
-353.850701 211.629608 -36.730301
-115.456478 366.333852 -26.720057
1029.273908 151.732683 -17.452964
1029.014351 139.407205 -11.818104
-269.720335 214.641555 -4.310884
624.597329 160.372716 -32.189911
58.553713 207.788108 -3.781844
997.324943 254.926670 -21.194554
638.405190 186.822570 -11.352937
904.311967 236.819253 -28.268888
1029.080799 230.197874 -9.454699
570.929444 209.061274 -30.648747
286.782197 358.990601 -9.509154
0.974998 211.783921 -35.435433
1029.008500 206.564596 -15.792315
92.501644 206.900630 -3.442340
656.562145 49.296627 -27.753618
917.221924 156.918640 -18.514632
718.654783 173.989340 -11.189981
-113.558630 221.370096 -2.962899
-198.648475 175.010209 -5.427298
446.295279 3.871014 -19.980549
1029.220334 140.786220 -22.054353
-8.603575 232.232981 -37.706813
1029.175277 141.288491 -25.554240
313.699641 173.343870 -33.273492
584.994645 266.767393 -34.770662
224.479813 180.478996 -6.184070
1029.228811 229.056026 -21.423484
1029.263211 229.727649 -8.828450
-198.144990 219.594180 -32.263592
1029.255636 140.847097 -10.347196
350.846187 358.379301 -28.164912
-40.901979 83.203861 -34.172727
895.391959 178.752734 -22.464670
-45.104696 343.111840 -2.558805
58.394839 253.286421 -19.402131
313.328999 136.837739 -31.295205
440.571997 73.267507 -5.817901
1029.146176 187.848913 -9.040993
886.207016 102.619967 -27.322772
-368.069958 316.609132 -6.043758
606.767980 168.537674 -15.600710
92.995537 268.985040 -6.097680
-310.548730 218.159625 -26.349054
294.340808 83.222065 -5.886548
964.471044 276.650779 -19.681507
628.857355 337.530868 -8.419252
533.645942 363.172147 -26.071540
1029.137774 227.226450 -10.712844
1029.144133 141.824809 -12.094427
373.608860 380.010012 -7.362988
1029.072346 230.843770 -24.585391
-55.110714 19.420702 -31.738786
468.419324 4.244681 -11.119992
-111.000808 211.981194 -27.879487
79.320016 241.156231 -35.819344
-240.463039 125.637259 -26.230372
602.211459 117.892897 -5.892995
-69.733340 210.959864 -29.098071
-218.428819 219.954755 -5.642181
1029.220458 185.847851 -11.251454
530.219442 327.271567 -23.532322
1029.129728 164.701498 -20.667179
-36.668397 210.689289 -22.173712
387.754077 289.172462 -6.610393
509.288832 53.822991 -6.833823
764.551350 172.812433 -9.255227
1018.702060 263.877181 -16.901393
1029.292222 139.341657 -20.537809
994.146508 134.047828 -8.796711
331.095267 18.544608 -7.217491
1025.596808 139.753338 -9.189918
-501.605685 193.590249 -17.142909
422.364659 386.234165 -5.736371
1029.087163 227.049554 -11.271518
594.311086 187.518782 -19.357058
577.784957 386.111292 -18.175000
-164.966442 22.717637 -11.387365
524.816268 328.956677 -25.333801
-407.088417 211.926407 -38.009259
1029.146218 191.360374 -20.366622
505.291786 133.358168 -9.152309
1028.984297 152.167014 -15.410153
78.719885 226.173752 -34.318531
708.203328 56.826643 -6.808776
-53.632881 384.571661 -34.743901
823.890938 176.382781 -24.149644
-258.949732 178.106360 -5.483061
595.863705 214.894640 -9.298601
-346.970721 76.680344 -26.502787
299.105509 132.830728 -23.648737
-35.999088 371.709996 -36.014366
874.187962 290.665166 -22.891011
762.223066 71.734429 -7.717528
314.099042 134.652422 -4.981469
1029.189180 152.203793 -9.786901
660.377762 182.560813 -10.624307
800.763352 147.969026 -19.076851
502.684247 132.315313 -6.849374
870.259839 114.011043 -28.168988
577.515546 33.643536 -6.888986
-275.476351 344.318807 -12.518370
1028.992859 189.529076 -21.214293
483.216230 30.395886 -28.551934
984.448265 177.983485 -13.483310
230.375704 218.320938 -11.511745
-142.640418 215.150713 -11.256969
1029.067094 190.358882 -21.601804
807.546438 241.850064 -26.509900
-0.050672 116.583955 -35.686613
364.774136 334.001203 -6.842968
799.568717 185.079158 -20.296045
547.397155 168.277618 -7.223987
705.016707 172.414200 -23.599405
1029.118563 166.532241 -28.691753
278.516759 227.149591 -5.826452
1029.114841 139.297521 -11.567960
393.878995 252.933363 -4.157554
567.813616 168.511644 -23.394628
362.145898 8.600221 -4.780826
966.192482 218.118326 -15.253790
343.106371 46.422838 -21.845363
-501.802128 193.773149 -17.580398
-7.212968 224.194838 -36.168942
876.139706 177.162307 -9.713847
1029.163817 184.148452 -21.974278
906.450237 280.114367 -10.200438
-42.803471 188.285439 -35.440962
1029.328978 136.843542 -18.881703
88.075460 248.420852 -31.596660
1029.222021 229.310936 -11.098716
1029.172426 140.413768 -21.018412
-143.450141 181.709836 -22.037083
923.123855 156.516555 -29.029466
731.061776 134.817079 -7.453590
646.086339 51.548605 -6.564940
1029.236015 251.014534 -17.909152
-0.017139 239.312239 -37.036275
43.402947 246.288263 -3.147225
1028.977966 139.590846 -10.513834
877.459553 117.374391 -28.182991
367.573640 238.160779 -25.132326
-0.706953 241.027220 -36.849409
711.198529 222.825045 -28.812086
194.814784 185.634440 -6.393821
1029.122752 191.332256 -15.803695
1029.022018 152.098673 -9.721617
571.434084 159.131433 -8.107084
-208.352019 39.174617 -31.866429
678.179878 328.297174 -23.938622
595.118353 176.697827 -12.203829
40.504387 226.831982 -35.471455
-260.927014 218.346568 -6.032982
877.113079 97.870642 -10.475557
508.371459 30.740239 -6.219566
1029.016906 187.725508 -9.274138
113.758366 209.235916 -35.035345
935.751737 151.640635 -10.592496
-21.299345 305.036470 -37.660563
519.405930 306.188821 -6.175387
-26.110079 358.373176 -35.923055
178.041355 161.164284 -7.687853
400.884835 273.474580 -5.355285
895.723450 102.969716 -8.286778
74.581887 211.256091 -3.808747
525.836376 319.594712 -23.995925
608.786944 215.546433 -8.466671
-230.857276 213.496930 -19.362069
-27.521079 349.424227 -37.287305
829.303373 174.868283 -8.754144
-19.320836 198.293254 -3.171270
808.043530 296.087127 -23.011025
357.947884 375.533742 -30.349364
1029.182799 226.565878 -26.855878
-87.138326 214.761943 -29.421328
394.568580 387.714624 -14.307030
-4.830511 214.240418 -28.963535
557.607992 168.831041 -7.024753
804.359726 325.247226 -24.732076
840.226704 317.739634 -21.957000
274.525753 358.351403 -27.566485
89.914009 177.892049 -28.644272
295.147790 48.942599 -11.428764
1029.072314 141.391280 -11.738849
-50.715658 117.712148 -10.214263
679.413714 56.483340 -6.061139
162.348049 202.698415 -10.562509
658.652067 216.804699 -17.320666
</DataArray>
</Points>
<PointData>
<DataArray NumberOfComponents='1' type='Int32' Name='ParticleType' format='ascii'>
1
1
1
1
1
1
1
1
1
1
1
1
1
1
1
1
1
1
1
1
1
1
1
1
1
1
1
1
1
1
1
1
1
1
1
1
1
1
1
1
1
1
1
1
1
1
1
1
1
1
1
1
1
1
1
1
1
1
1
1
1
1
1
1
1
1
1
1
1
1
1
1
1
1
1
1
1
1
1
1
1
1
1
1
1
1
1
1
1
1
1
1
1
1
1
1
1
1
1
1
1
1
1
1
1
1
1
1
1
1
1
1
1
1
1
1
1
1
1
1
1
1
1
1
1
1
1
1
1
1
1
1
1
1
1
1
1
1
1
1
1
1
1
1
1
1
1
1
1
1
1
1
1
1
1
1
1
1
1
1
1
1
1
1
1
1
1
1
1
1
1
1
1
1
1
1
1
1
1
1
1
1
1
1
1
1
1
1
1
1
1
1
1
1
1
1
1
1
1
1
1
1
1
1
1
1
1
1
1
1
1
1
1
1
1
1
1
1
1
1
1
1
1
1
1
1
1
1
1
1
1
1
1
1
1
1
1
1
1
1
1
1
1
1
1
1
1
1
1
1
1
1
1
1
1
1
1
1
1
1
1
1
1
1
1
1
1
1
1
1
1
1
1
1
1
1
1
1
1
1
1
1
1
1
1
1
1
1
1
1
1
1
1
1
1
1
1
1
1
1
1
1
1
1
1
1
1
1
1
1
1
1
1
1
1
1
1
1
1
1
1
1
1
1
1
1
1
1
1
1
1
1
1
1
1
1
1
1
1
1
1
1
1
1
1
1
1
1
1
1
1
1
1
1
1
1
1
1
1
1
1
1
1
1
1
1
1
1
1
1
1
1
1
1
1
1
1
1
1
1
1
1
1
1
1
1
1
1
1
1
1
1
1
1
1
1
1
1
1
1
1
1
1
1
1
1
1
1
1
1
1
1
1
1
1
1
1
1
1
1
1
1
1
1
1
1
1
1
1
1
1
1
1
1
1
1
1
1
1
1
1
1
1
1
1
1
1
1
1
1
1
1
1
1
1
1
1
1
1
1
1
1
1
1
1
1
1
1
1
1
1
1
1
1
1
1
1
1
1
1
1
1
1
1
1
1
1
1
1
1
1
1
1
1
1
1
1
1
1
1
</DataArray>
<DataArray NumberOfComponents='1' type='Int32' Name='ParticleID' format='ascii'>
0
1
2
3
4
5
6
7
8
9
10
11
12
13
14
15
16
17
18
19
20
21
22
23
24
25
26
27
28
29
30
31
32
33
34
35
36
37
38
39
40
41
42
43
44
45
46
47
48
49
50
51
52
53
54
55
56
57
58
59
60
61
62
63
64
65
66
67
68
69
70
71
72
73
74
75
76
77
78
79
80
81
82
83
84
85
86
87
88
89
90
91
92
93
94
95
96
97
98
99
100
101
102
103
104
105
106
107
108
109
110
111
112
113
114
115
116
117
118
119
120
121
122
123
124
125
126
127
128
129
130
131
132
133
134
135
136
137
138
139
140
141
142
143
144
145
146
147
148
149
150
151
152
153
154
155
156
157
158
159
160
161
162
163
164
165
166
167
168
169
170
171
172
173
174
175
176
177
178
179
180
181
182
183
184
185
186
187
188
189
190
191
192
193
194
195
196
197
198
199
200
201
202
203
204
205
206
207
208
209
210
211
212
213
214
215
216
217
218
219
220
221
222
223
224
225
226
227
228
229
230
231
232
233
234
235
236
237
238
239
240
241
242
243
244
245
246
247
248
249
250
251
252
253
254
255
256
257
258
259
260
261
262
263
264
265
266
267
268
269
270
271
272
273
274
275
276
277
278
279
280
281
282
283
284
285
286
287
288
289
290
291
292
293
294
295
296
297
298
299
300
301
302
303
304
305
306
307
308
309
310
311
312
313
314
315
316
317
318
319
320
321
322
323
324
325
326
327
328
329
330
331
332
333
334
335
336
337
338
339
340
341
342
343
344
345
346
347
348
349
350
351
352
353
354
355
356
357
358
359
360
361
362
363
364
365
366
367
368
369
370
371
372
373
374
375
376
377
378
379
380
381
382
383
384
385
386
387
388
389
390
391
392
393
394
395
396
397
398
399
400
401
402
403
404
405
406
407
408
409
410
411
412
413
414
415
416
417
418
419
420
421
422
423
424
425
426
427
428
429
430
431
432
433
434
435
436
437
438
439
440
441
442
443
444
445
446
447
448
449
450
451
452
453
454
455
456
457
458
459
460
461
462
463
464
465
466
467
468
469
470
471
472
473
474
475
476
477
478
479
480
481
482
483
484
485
486
487
488
489
490
491
492
493
494
495
496
497
498
499
</DataArray>
<DataArray NumberOfComponents='1' type='Int8' Name='IsActive' format='ascii'>
1
0
1
1
0
1
0
1
1
1
1
1
1
1
1
1
1
1
1
0
1
1
0
1
1
0
1
0
1
1
1
1
1
1
1
1
0
0
1
0
1
1
1
1
1
1
1
1
1
1
1
1
0
1
1
1
1
1
1
1
1
1
1
1
1
1
1
0
1
0
1
1
0
0
1
1
1
0
1
1
1
1
1
0
0
1
1
0
0
0
1
0
1
1
0
1
1
1
1
1
1
1
1
1
1
0
1
0
1
0
0
1
1
1
1
1
1
1
1
1
1
1
1
0
1
1
0
1
0
1
1
1
1
0
1
1
1
1
0
1
1
1
1
0
0
1
1
0
1
0
0
1
0
0
1
1
1
1
1
1
1
1
1
1
1
1
1
1
1
1
1
1
0
1
1
1
1
1
1
0
1
1
1
1
1
1
1
1
1
1
1
1
1
1
1
0
0
1
0
1
0
0
1
1
1
0
1
1
0
1
1
0
1
0
1
0
1
1
1
1
0
1
1
1
0
1
1
1
1
1
1
1
1
0
1
1
1
1
1
1
1
1
1
1
0
1
1
1
1
1
1
1
1
1
0
1
1
1
1
1
1
1
0
1
1
0
1
1
0
1
1
1
0
1
0
1
1
1
0
1
1
0
1
1
1
1
1
1
0
1
1
0
0
1
1
1
0
1
1
1
1
0
1
0
1
0
1
1
1
1
1
1
1
0
0
1
1
1
1
1
1
0
1
1
1
0
1
1
1
1
1
1
1
0
1
0
1
1
1
0
0
1
0
1
1
1
1
1
1
1
0
1
1
1
1
1
1
1
1
1
0
0
1
0
1
1
1
1
1
1
1
1
0
1
0
1
1
1
1
1
0
1
1
1
1
0
0
1
1
1
1
1
0
1
0
1
1
1
1
1
1
1
1
1
1
1
1
0
1
1
1
1
1
1
0
1
1
1
1
0
1
1
1
1
1
1
0
1
0
1
1
1
1
1
1
1
1
0
1
1
0
1
0
0
1
1
1
1
0
1
1
0
1
1
1
1
1
0
0
1
1
1
1
1
1
1
1
0
1
1
1
1
1
1
0
1
1
1
1
1
1
1
1
1
1
0
1
1
1
1
1
1
1
1
1
0
1
1
1
1
</DataArray>
<DataArray NumberOfComponents='1' type='Int32' Name='ParticleTetID' format='ascii'>
25957
-61515
9901
30118
-58962
8750
-66558
70398
31285
12476
57414
3416
9415
27308
62858
73392
71913
73588
6625
-66554
64192
5708
-58961
30066
78812
-70586
6238
-61512
24155
29577
80068
4160
68853
62931
46231
60213
-66561
-66555
50935
-66557
52471
26478
2932
85353
62756
9448
14183
62987
73341
60429
60034
43903
-61515
29086
19262
59061
26210
16808
76039
69395
2823
79115
29559
69521
65228
17674
54088
-64917
57189
-66551
56885
34
-112396
-64916
25886
51690
62688
-58965
74957
61224
10137
63078
64305
-66554
-58961
27308
51917
-61515
-66557
-66558
6262
-64917
65402
67872
-61515
1082
24246
67555
64253
73353
76206
13613
79299
3808
6109
-58955
35380
-59786
5065
-66554
-66554
2273
36002
76727
58504
56462
45174
67144
7958
53165
1222
60067
58524
-66554
67415
16936
-146594
75045
-58962
68180
14348
7436
75081
-66588
68913
67208
74595
62900
-112396
7436
65295
77754
52162
-61512
-58955
32459
52405
-58955
66216
-156163
-66588
66367
-61515
-58955
62667
7816
58900
7304
20214
15318
62680
7817
59822
30377
43473
62916
72940
43697
52942
84815
7946
72014
-58958
66403
68909
65308
10690
59065
63149
-58958
63138
73991
71913
75263
98736
60185
65009
38526
7333
6698
25265
58493
64138
62762
11468
-66558
-59786
69395
-59783
68180
-58958
-58965
29087
64432
53245
-59786
704
71051
-66551
7346
61208
-72207
62252
-68102
57198
-59788
67469
66756
65399
2769
-58955
13044
8925
73485
-58955
58252
63155
30707
52405
68511
67872
28388
30274
-59785
71393
24573
76275
42655
82933
51916
11373
73713
79570
61871
-58958
20066
74966
41620
67591
17889
62985
63044
68892
73320
-64917
650
45137
7952
6173
64819
45080
28764
-66554
63114
73913
-66551
17188
19217
-61521
6392
79245
2213
-61514
20794
-61515
7301
68843
64141
-64916
65995
79247
-64916
72012
68877
57117
14343
71781
19604
-58961
23485
66368
-61512
-58955
19262
501
65910
-66551
6872
59069
11108
7492
-66555
70419
-126563
77547
-66558
59461
30681
24209
67671
67406
12887
2388
-66555
-66551
9487
57127
35011
79695
72689
73976
-58955
59719
30063
35063
-72207
27488
69582
77209
59333
12692
7256
53269
-66557
6262
-66557
51025
73221
26119
-58962
-58955
7502
-66551
42060
18737
66951
17246
30013
51008
87483
-61512
72012
7975
71108
30601
9442
95405
71899
69033
79175
-58955
-66551
26427
-58961
13208
52402
3900
30239
6779
73172
18084
7400
-61511
71181
-59788
23861
82961
69503
74471
72744
-66557
78735
36435
71338
2276
-112399
-58955
62773
68066
7727
71182
16271
-61518
74291
-66555
33801
61473
1546
66665
7274
62753
12232
38099
16017
57015
70311
45020
-66552
63147
62161
70491
67872
71391
7996
-61518
52716
56778
36598
17033
-61518
57808
11374
39225
63171
71825
58690
-59791
30403
-66551
127228
65783
85709
61638
44919
2276
5921
78645
-61518
72725
14453
-66591
28507
-58955
-66557
6957
75846
64119
58897
-64916
5884
25058
-66551
67874
45191
5884
65244
25039
-61515
-66552
72039
9625
63730
78485
30275
9487
71771
67591
-61512
42659
66101
24155
56360
4553
41493
-127033
58701
34670
74367
67413
9421
4553
58827
650
62219
41630
-58965
14828
80586
6241
58665
77014
67383
30180
98736
29379
-66551
131
61561
28515
62990
</DataArray>
<DataArray NumberOfComponents='3' type='Float32' Name='vels' format='ascii'>
1.252673 -0.000187 0.001170
2.941750 0.743093 0.251364
0.310478 0.089695 -0.000416
2.684449 -1.883304 -0.002374
4.011166 -0.808442 0.007605
0.034151 -0.005331 -0.000192
5.291425 0.658114 0.015048
0.980700 0.048041 0.003822
2.293864 0.340959 -0.000246
0.026852 0.004373 -0.000969
2.737297 0.524857 0.020944
0.491186 0.238727 0.000839
0.280069 0.002721 0.001440
1.175905 0.580707 -0.000507
0.162629 0.002029 -0.000186
1.379930 0.381849 0.000843
1.369695 0.056141 -0.001038
2.331849 -0.597028 0.002012
0.028789 0.004666 -0.002499
4.618366 0.202199 0.374453
0.084409 0.015644 0.000020
0.058952 0.072329 0.000146
3.564954 -0.948543 -0.100939
0.722878 0.312801 0.000278
4.910017 -0.914019 -0.000481
2.709453 -0.571234 0.037044
2.195961 0.400434 -0.000050
2.291721 0.555347 0.251364
0.800382 -0.435786 0.000268
0.629751 0.355712 -0.000573
0.068621 0.100148 0.008935
0.124283 0.077045 -0.000390
1.133819 0.053253 0.001306
1.247095 -0.018563 -0.001735
0.469650 2.018781 -0.052884
0.632946 -0.013500 -0.003027
3.361597 0.485264 0.057820
5.072144 0.616756 0.203979
0.205948 -0.186809 0.012953
4.822554 0.159554 -0.071552
1.389709 0.169985 0.000667
2.689687 0.662150 -0.000339
0.028011 0.014672 -0.000002
1.873426 -1.256054 4.337157
0.007546 0.000004 -0.000239
0.111815 0.001275 -0.000133
0.274410 0.309219 0.000030
0.060739 0.000037 0.000607
1.935138 0.369786 0.000358
0.366829 -0.013996 -0.001789
3.324664 -0.691553 0.006129
1.503156 0.684856 0.000720
2.831417 0.656188 0.157502
0.000535 0.000001 -0.000000
-0.000522 0.000277 -0.000251
1.817282 0.104205 -0.001380
0.875141 -1.248399 0.014759
0.272667 0.002830 -0.005050
4.802731 -0.840186 -0.037572
0.128052 0.000313 -0.001120
0.907654 0.566140 0.000837
3.010137 -0.683700 0.006277
0.458967 0.436163 -0.000386
1.514664 0.032387 0.000867
1.652313 -0.034350 -0.004079
0.519249 -0.071855 -0.000403
0.101646 0.110126 -0.000045
4.340364 -0.231916 0.365021
2.774906 0.651493 0.003294
4.121013 0.480241 0.104173
2.593201 0.484396 -0.002063
0.002019 -0.001633 0.000019
46.675339 14.517866 -0.076229
4.966831 -0.741021 0.103249
1.090267 -0.167874 -0.000713
1.290096 -0.888110 -0.022526
0.686893 -0.002295 0.001072
4.058145 -0.762731 -0.344492
0.000391 -0.001197 0.000866
0.022631 -0.000006 -0.000233
0.934382 0.684618 -0.000285
1.783693 0.034010 -0.000814
1.124625 -0.195368 -0.002535
5.270291 0.597518 0.093265
3.790543 -0.755850 0.004429
1.089360 0.532857 -0.000136
1.512348 -0.490851 -0.029180
2.891380 0.658313 0.072510
4.708169 0.714293 0.041555
5.286538 0.662013 0.016323
0.049101 0.004133 0.000004
4.335292 -0.493674 0.469468
1.868927 0.039238 -0.000910
2.873152 0.565133 0.000036
2.925429 0.736889 0.253986
1.166704 0.042302 -0.000386
0.505401 -0.016592 0.000129
0.931728 0.125614 -0.001556
2.139199 -0.401674 0.000069
2.268325 0.533846 -0.000030
3.321950 1.212150 -0.003132
1.409757 0.375745 -0.002687
1.868290 0.281444 0.002491
-0.002727 -0.000007 -0.001066
-0.002848 -0.000469 -0.002078
3.529941 -0.711878 0.030954
7.733901 1.889658 0.003085
5.068028 0.739679 0.098900
0.195017 0.030933 0.000916
5.282705 0.607003 0.090999
4.672356 0.220515 0.340548
0.001335 0.000387 0.001047
0.873540 -0.198847 0.001670
3.188697 0.137074 0.001510
2.496891 -0.197239 0.001158
3.261666 -0.261174 0.006394
-0.027519 -1.621607 -0.035544
2.382812 -0.492770 0.000460
0.010814 0.003166 -0.001169
1.599284 1.689653 0.001155
0.646449 0.082741 0.002252
0.627459 0.488486 0.000874
2.452872 -0.522604 0.000696
5.187976 0.534039 0.131804
0.363183 0.001243 -0.000562
0.018420 -0.008934 0.000005
0.063052 -0.112684 0.126129
0.041901 0.010226 0.000210
3.941319 -0.939718 0.019078
2.749866 0.683196 0.004834
0.775566 -0.117358 -0.000159
0.114977 0.000147 -0.001906
3.206580 -1.101939 0.008393
3.315421 0.229466 0.303735
3.918902 0.177148 0.001714
3.402130 0.535403 -0.000338
1.479022 0.044810 0.000504
0.408820 -0.001501 -0.001326
46.605008 17.425592 -0.121316
0.031953 -0.000109 -0.001371
0.953803 0.005387 0.000829
4.135221 -0.797573 0.005995
0.001709 0.003294 -0.000000
2.267504 0.537684 0.170558
3.031390 -0.650702 0.168210
1.350356 0.365968 0.004561
0.047131 0.000285 -0.003088
3.485382 -0.705401 0.047642
3.385626 -0.000915 0.006301
0.078912 -0.035162 -0.038296
3.309975 0.272851 0.268077
0.468532 0.281727 -0.003982
3.143853 0.750221 0.009430
3.065246 -0.673178 0.198509
2.409249 -0.586633 -0.000415
0.102950 0.029630 -0.000855
2.372382 0.445170 -0.001418
0.317918 -0.000795 0.002924
0.507496 -0.001383 0.000118
1.024346 -0.020458 0.000529
0.318139 -0.000584 0.000425
0.013257 0.003850 -0.000089
2.301116 -1.631385 -0.030805
6.650975 -6.197310 0.048440
4.482977 0.584264 0.003106
0.775938 -0.006449 -0.001805
2.342570 -0.491087 -0.000512
0.000279 0.000978 -0.002589
0.105149 0.000296 -0.000959
12.927666 -3.080949 5.553348
0.117625 0.034354 0.000534
4.143096 0.994508 0.000309
4.195891 -0.823559 0.007726
0.373763 -0.135319 -0.000664
2.267599 0.099218 0.001965
1.732587 0.043043 0.000498
-0.001959 0.000407 0.000114
2.477664 0.101840 0.001212
0.076296 0.000003 0.000462
3.998002 -0.839101 0.052347
1.548970 0.022820 -0.002154
1.447846 0.321440 -0.000065
1.661173 0.085280 0.000824
1.856169 -0.383053 0.000409
-0.003516 0.002561 0.006228
3.589503 -0.993380 -0.001540
3.037289 -0.589697 -0.004448
0.833433 2.793476 -0.103952
0.055601 -0.000119 0.000079
0.018424 0.002954 -0.000893
2.108210 0.932413 -0.002114
3.442244 0.269598 0.000121
2.018912 0.272157 0.001254
0.175957 0.001017 0.002261
1.092124 -0.521609 0.000536
5.273003 0.663612 0.018242
5.040750 0.742126 0.111195
0.051090 0.000075 -0.001056
4.238118 0.605920 0.212747
3.242567 0.803485 0.008724
3.570209 -0.858505 0.231158
3.211295 -0.716464 -0.163990
0.420686 -0.192407 0.000345
2.235009 0.401177 -0.001658
0.031986 0.000468 -0.004536
5.049348 0.741882 0.100253
0.312840 0.382355 -0.000552
1.690323 0.113255 -0.000902
3.395705 0.225840 0.335863
0.083590 0.000063 -0.002301
0.235109 0.000166 0.000484
2.260284 0.109515 0.021262