<VTKFile type='UnstructuredGrid' version='1.0' byte_order='LittleEndian' header_type='UInt64'>
<UnstructuredGrid>
<Piece NumberOfCells='500' NumberOfPoints='500'>
<Points>
<DataArray NumberOfComponents='3' type='Float32' Name='Position' format='ascii'>
549.419209 189.447359 -4.678129
1029.059357 188.209033 -16.808274
-196.604257 362.912725 -6.072114
601.514140 262.069068 -6.399794
1029.278797 232.304881 -20.074967
-154.403661 114.120616 -2.173321
1029.253611 152.748402 -21.930599
903.024303 234.187800 -5.623504
552.451405 193.865584 -4.375924
-37.548938 282.401213 -5.204472
1029.136333 154.676584 -29.201451
89.852937 177.286249 -29.824561
-79.171065 222.996675 -6.155431
583.053114 118.278413 -4.352570
593.992013 216.794080 -4.373419
1029.359902 252.147987 -15.006536
929.461720 175.768161 -6.518805
1029.087137 262.783777 -11.868301
-103.025091 322.572071 -6.901704
1029.193912 138.980634 -19.474711
922.444255 158.459547 -13.063456
477.513234 26.413803 -4.621957
1029.076102 228.539705 -26.569211
460.841920 396.362552 -3.829753
1029.103216 249.678682 -17.080837
1028.990499 208.533237 -16.447437
1029.196326 188.604010 -17.100767
1029.136178 186.426719 -8.694585
106.147877 237.562077 -37.550602
870.532950 308.841440 -7.589174
625.469817 215.407792 -12.256723
440.550727 56.476937 -1.007613
1029.231420 262.000992 -8.732897
1029.083701 205.611464 -10.271489
422.306524 386.274159 -3.543799
866.221193 189.407949 -7.823690
1029.074164 155.183680 -27.112406
1029.321351 153.281068 -16.377951
492.727649 140.578755 -31.879665
1028.982668 142.206514 -26.628187
917.398661 108.152989 -6.126138
607.573764 120.578929 -2.855829
314.347638 101.629282 -37.128927
1029.147816 142.387907 -29.713177
748.442427 213.793314 -17.637333
-269.825344 218.188567 -37.645844
85.223458 188.734969 -35.126044
897.227431 213.468566 -9.044099
1029.339088 256.934836 -22.392138
663.167997 189.064889 -6.849724
1029.096555 251.048780 -9.627166
722.134503 247.886471 -5.690615
1029.044092 190.888146 -17.070591
234.746590 236.262480 -37.252804
-491.871079 186.681194 -2.040033
1029.140656 185.673421 -7.749712
495.190172 298.775276 -4.510500
-218.363457 181.694350 -31.194126
1029.281029 251.617953 -16.541149
648.041460 14.445471 -11.693103
288.846024 173.142117 -34.060042
1029.144067 251.298274 -9.433218
643.557390 382.000462 -8.314122
855.103793 185.839394 -10.535879
1029.099325 207.296483 -29.207397
80.391989 238.398232 -37.443890
526.316280 133.201629 -36.544390
1029.003818 260.121252 -19.353480
1029.219105 141.565174 -7.227381
1029.030335 140.847806 -10.327024
1029.210581 151.177371 -10.058554
-224.462960 181.447488 -34.705277
422.743582 386.163063 -3.664093
1029.370072 249.889205 -17.917543
526.569365 205.752026 -3.876969
572.313930 209.765059 -30.858103
873.792307 214.039902 -29.098900
1029.088630 226.583231 -26.791639
646.268786 191.618181 -8.020186
644.409646 182.125240 -13.330206
664.696214 67.839616 -6.199481
1029.075219 199.084609 -13.594524
1029.306689 250.607125 -21.757990
1029.275264 140.263570 -17.033113
1029.110714 228.986199 -22.802082
580.435307 118.930720 -4.159775
1029.118126 264.933374 -10.231840
1029.150350 191.275146 -16.086105
1029.304192 140.303527 -20.675616
1029.296586 152.742705 -21.728450
324.586295 231.096674 -35.168964
1029.317875 251.504023 -16.457303
1029.142010 196.584875 -14.344229
1029.292726 155.217574 -29.018318
1029.213633 188.409014 -16.858498
426.378612 238.586935 -0.130117
295.702682 203.479615 -2.565081
790.337141 244.296397 -6.149559
1029.337316 249.376128 -23.538960
1029.006290 140.497051 -6.606818
1029.101994 154.322595 -29.456101
54.514665 326.627164 -12.083337
1029.023898 231.951962 -20.916878
-432.527034 176.860652 -26.670271
-361.994789 249.883539 -20.036257
1029.244989 230.300666 -9.687840
1029.187334 191.618517 -20.456878
1029.318341 165.992030 -17.959244
-285.581679 261.743643 -19.880158
1028.977543 140.299234 -17.001177
1029.189046 140.141349 -19.420439
-501.662688 192.436447 -9.494666
287.841140 320.096151 -3.316551
1029.088515 191.145182 -20.070877
1029.119364 214.611647 -7.296110
1029.162892 231.219450 -28.952026
439.626824 74.214665 -20.685133
1029.069190 250.884586 -9.429735
-178.695178 370.769637 -5.648552
1029.161448 191.361488 -22.229912
52.291071 155.575952 -35.854300
901.435685 174.482494 -4.771947
1029.203531 259.133438 -14.979347
1029.386622 140.349597 -17.517165
778.478836 213.518242 -8.811225
122.313180 222.312518 -33.760990
377.639320 41.467018 -2.348081
631.646300 213.544608 -7.163305
1029.257480 229.715106 -21.899225
1029.221177 141.549552 -28.168380
187.108096 172.199130 -5.057323
-198.975354 214.404363 -5.404249
1029.184340 250.622315 -9.354484
1029.115912 138.104862 -11.754595
1029.020587 188.147850 -23.823336
1029.259073 166.069571 -28.080659
1029.121508 190.466885 -8.136797
1029.124786 206.293152 -17.948811
422.237684 386.356569 -3.913509
-199.524159 213.089187 -3.984777
1028.976683 198.275371 -20.143932
1029.216848 231.067388 -27.441933
584.242276 153.865843 -36.527548
1029.134359 189.002731 -8.993922
1028.982673 228.031097 -11.093356
738.468149 339.306196 -6.532589
573.387044 8.200521 -20.156921
1029.064718 230.128527 -9.890916
1029.261154 171.158954 -29.184869
381.472231 52.266270 -10.001146
1029.152980 136.636137 -10.985803
836.938526 304.242526 -6.128004
1029.072949 189.720784 -13.672791
1029.126679 229.823613 -11.368067
1029.116635 266.379400 -22.171789
339.511846 370.044320 -13.559020
1029.194718 140.926378 -10.790143
-120.868974 179.965393 -31.615793
340.563341 82.839930 -2.682867
360.015204 240.243426 -4.979957
772.205579 219.756576 -12.377977
281.743292 347.069459 -13.361258
1029.165082 249.277036 -18.436584
1029.236544 229.448986 -17.039859
568.873710 99.822325 -1.713050
1012.610490 202.803643 -15.039525
1029.162656 250.509853 -9.214404
313.545780 169.552609 -26.650170
517.881418 3.906665 -13.185921
600.671561 10.463491 -12.584937
-65.075834 387.116761 -18.819055
1028.993105 141.600352 -27.791848
1029.312762 229.305865 -15.668280
681.061355 224.987077 -4.416837
1029.207264 189.143456 -11.935037
888.210425 182.571764 -12.237875
-521.907284 274.698806 -37.173686
1029.232534 189.628657 -19.390733
818.211025 188.729864 -9.459217
1029.259166 229.986926 -17.220021
1029.103068 198.247599 -27.320136
1028.989402 252.799752 -25.582654
1029.160703 187.417509 -7.500706
1029.086343 261.955222 -10.171866
90.160285 179.526499 -26.174251
1029.196213 265.861447 -23.563606
1029.060599 250.741090 -23.158830
897.944544 300.329461 -11.096228
-232.865663 175.605030 -19.999540
-172.252124 309.849105 -3.561559
1029.184939 230.710144 -21.207296
1029.139103 188.001014 -24.091368
1029.296602 165.116357 -11.684768
733.595745 213.263181 -28.584008
283.490237 300.209156 -2.707684
1029.246652 152.097065 -21.274371
1029.238727 166.185289 -18.220476
625.691414 8.303804 -12.384128
1029.317852 166.310171 -11.196974
1029.074538 141.753036 -28.112455
1028.978325 226.681346 -19.098767
1029.070636 229.001683 -26.946571
274.064970 290.658988 -34.892529
1029.076318 154.088305 -26.648681
770.173400 50.357028 -7.516705
1029.134247 165.425647 -17.916420
499.615693 46.222676 -4.082396
1028.993193 251.027087 -9.360745
1029.191202 138.906774 -12.100933
-162.608067 179.483626 -2.721108
790.843373 212.671420 -15.948524
1028.987540 207.207378 -15.083185
1029.256612 249.121303 -18.632310
1029.083419 261.565138 -18.628778
1029.186294 141.644426 -26.875536
1029.125480 163.915666 -20.865933
1029.067550 187.903334 -11.437351
731.986619 213.345470 -28.289346
1028.977323 191.701105 -10.560304
5.561435 75.299775 -34.668835
1029.130325 227.908705 -11.363294
670.635568 166.119147 -23.747334
66.700945 190.972736 -33.980959
1028.994581 191.539402 -20.807746
1029.089074 228.582486 -11.134421
1029.032689 139.337093 -11.491075
792.735641 181.095745 -26.404068
372.620258 58.008078 -18.904551
614.480274 8.786249 -20.188248
1029.118109 188.779216 -7.828990
1029.058995 154.448558 -27.720059
431.909000 254.555876 0.000849
482.832954 223.524745 -35.622773
1029.130825 162.909080 -15.085360
1029.287445 139.578995 -9.591735
313.223764 372.824932 -6.777016
1029.138655 191.579951 -20.417899
641.563694 220.549865 -25.733897
660.049684 180.595606 -19.850678
1029.215009 263.230013 -9.648705
487.802907 32.513099 -28.665768
916.040425 188.234145 -7.315670
1029.114565 185.116480 -26.917102
1029.027159 188.449629 -8.741109
1029.088616 227.990706 -18.525192
918.490468 176.839283 -23.810329
679.571225 191.075630 -29.982032
1028.976192 263.358560 -7.415076
933.230076 114.168459 -6.581817
7.889217 162.953113 -34.185098
1029.056723 204.324582 -9.094241
1028.993735 205.652109 -16.980837
1029.000713 266.680231 -14.841078
1029.019230 264.554280 -17.341043
1029.020443 260.195748 -17.082613
515.957644 141.769178 -5.990142
1029.136234 190.187559 -24.030354
-72.882327 389.564089 -30.623051
-0.003125 280.435598 -36.821967
613.795764 184.196325 -5.986046
316.770326 181.575179 -18.066621
542.347918 208.513071 -3.905291
1028.992364 140.724015 -18.226469
971.729059 190.592264 -14.539899
1029.288175 250.532170 -11.240318
1028.982169 140.578835 -8.523235
103.976445 202.838478 -36.897520
-499.044159 188.913144 -25.053269
1028.991480 184.793799 -26.995024
-108.866121 285.525327 -4.180705
1029.263509 251.378450 -21.648380
-405.787311 126.030143 -35.906970
1029.055936 181.494904 -18.997324
311.123055 155.110376 -10.659765
1029.168282 189.604127 -16.148881
-58.823901 188.219471 -26.160839
1029.060040 188.469406 -26.483053
1029.156936 166.796368 -19.504463
1029.062033 251.332961 -17.754174
818.807672 219.401829 -19.385761
1029.058731 251.612451 -21.507725
1029.209896 251.530546 -18.765869
1029.226357 141.141672 -26.962504
1029.035831 258.818714 -21.723534
1029.137454 191.840832 -7.148699
35.443097 181.767707 -33.733768
1028.992617 143.275617 -33.765066
255.743083 311.222816 -3.979857
1029.052570 231.238678 -23.593649
991.519857 236.830836 -26.128014
781.112463 309.422797 -6.136922
1029.019086 186.784368 -8.920433
1029.062089 229.606706 -11.842059
-492.991416 185.874663 -3.848113
117.316716 169.211400 -33.891570
819.397699 187.589969 -29.887027
1029.055737 139.105929 -11.640209
341.337832 48.499060 -30.524719
1029.084872 192.212440 -20.238293
-234.684051 212.360773 -5.073317
64.544341 223.371313 -13.005961
1028.996143 151.715862 -17.273462
1028.994285 231.174448 -6.028807
411.591621 245.039275 -3.410562
580.894650 214.395212 -4.514319
1029.256785 153.702561 -22.613375
1029.274629 189.295571 -19.419725
1028.980026 266.824802 -15.162600
155.088718 171.030833 -33.559015
1029.096721 252.600993 -23.946544
1029.235200 153.879772 -27.568629
-260.426729 212.751360 -36.372546
514.370086 367.915030 -23.196683
1029.273908 151.732683 -17.452964
1029.014351 139.407205 -11.818104
-160.361449 216.091168 -4.445795
1028.984348 184.826144 -32.941579
594.345626 121.501400 -3.650041
1028.980649 249.835231 -21.175183
774.438456 188.132666 -11.259085
1029.188393 230.634547 -28.444128
1029.080799 230.197874 -9.454699
630.855501 214.654293 -30.790347
650.218285 377.360040 -7.486698
555.577939 112.022460 -28.947393
1029.008500 206.564596 -15.792315
550.072292 140.327643 -2.367397
1029.067852 141.603446 -27.818469
1029.069269 165.176413 -18.524279
1029.133526 191.427176 -10.540003
287.354057 203.139801 -3.112699
-48.010764 196.959423 -5.543617
603.293289 6.226765 -25.472706
1029.220334 140.786220 -22.054353
259.980057 212.996743 -37.752090
1029.175277 141.288491 -25.554240
447.739518 78.517446 -31.212446
911.446069 239.173055 -34.743290
623.637051 120.306719 -4.766834
1029.228811 229.056026 -21.423484
1029.263211 229.727649 -8.828450
321.988338 209.802221 -32.336845
1029.255636 140.847097 -10.347196
1029.144526 262.952322 -22.063480
296.021695 134.028977 -34.193951
1029.093018 189.431262 -22.359625
239.409768 254.968499 -2.476088
1029.246426 229.393185 -16.587050
588.715498 169.557938 -24.962708
909.588803 180.962848 -10.910050
1029.146176 187.848913 -9.040993
1029.240783 141.515258 -27.379984
-249.745870 350.308414 -5.963265
1029.025452 191.423095 -15.451683
344.671181 346.136515 -5.912050
-163.742113 219.566806 -26.105389
557.084005 5.122098 -10.147890
1029.083022 262.773429 -19.497108
1029.086616 250.371744 -7.973811
1029.037398 262.781573 -26.167907
1029.137774 227.226450 -10.712844
1029.144133 141.824809 -12.094427
1028.988883 264.995240 -7.280992
1029.072346 230.843770 -24.585391
256.172671 158.004101 -31.707499
611.377909 6.104236 -11.730316
624.577126 167.223482 -22.613855
383.689239 264.360245 -20.017657
-146.156708 110.600392 -26.017983
689.385840 128.797785 -6.059987
849.233389 176.979514 -23.403148
-80.103209 220.084764 -5.505397
1029.220458 185.847851 -11.251454
1029.284457 252.216365 -23.460776
1029.129728 164.701498 -20.667179
903.853390 179.221130 -19.525590
486.912529 309.134274 -12.407335
1028.998408 152.824558 -6.281295
1029.029557 189.622144 -9.059488
1029.097936 262.061277 -16.866182
1029.292222 139.341657 -20.537809
1029.028994 140.404660 -8.938870
646.628086 18.065692 -6.879033
1029.005844 140.255329 -9.204981
-500.723581 193.187310 -15.743832
422.364659 386.234165 -5.736371
1029.087163 227.049554 -11.271518
693.389054 187.867531 -19.198754
795.383577 337.945332 -18.143540
-37.007659 13.908639 -11.972336
1029.284670 252.620977 -25.589771
-311.906069 212.427383 -37.841858
1029.146218 191.360374 -20.366622
1029.105913 190.489401 -8.928432
1028.984297 152.167014 -15.410153
487.868487 212.946991 -34.381599
1028.977495 139.629717 -6.673073
82.717941 319.965446 -34.616206
1029.217982 189.239624 -24.197824
-159.269641 176.976265 -5.636121
753.890304 213.470818 -9.218049
-239.374504 45.774058 -26.275026
1029.331110 152.525238 -20.330589
113.463439 270.837831 -36.097248
1029.187656 251.079710 -22.841616
1029.318670 140.222168 -7.695200
497.477295 134.909029 -5.976421
1029.189180 152.203793 -9.786901
854.849442 185.899599 -10.587694
1029.020630 165.105675 -19.151886
963.785021 177.694027 -6.939928
1029.190473 154.549839 -27.821762
1029.119299 138.490448 -7.169665
-140.070985 382.813512 -12.600977
1028.992859 189.529076 -21.214293
1029.200837 141.506837 -28.207214
1029.122687 189.627835 -12.980992
1029.110689 230.414989 -7.779148
311.831048 150.406040 -10.183467
1029.067094 190.358882 -21.601804
1029.149717 228.931587 -26.989552
302.312277 110.939267 -35.725086
531.535241 343.917462 -6.538882
1029.126705 199.221430 -20.196635
1028.978204 191.616251 -5.973972
1029.154759 191.002642 -23.581673
1029.118563 166.532241 -28.691753
631.543450 228.082026 -4.436032
1029.114841 139.297521 -11.567960
411.558032 245.110662 -3.276845
1029.136270 191.163161 -23.318089
607.722579 7.029817 -10.709702
1029.105731 205.069380 -15.635904
1028.991614 151.329544 -19.248305
-500.998282 193.401975 -16.259079
341.229742 84.959679 -36.792190
1029.120078 187.702432 -9.310782
1029.163817 184.148452 -21.974278
1029.312471 248.234907 -9.873754
480.676287 71.309098 -33.540814
1029.328978 136.843542 -18.881703
870.389779 288.940196 -25.074976
1029.222021 229.310936 -11.098716
1029.172426 140.413768 -21.018412
749.623411 170.607495 -16.922452
1029.118423 167.132526 -29.081801
1029.032436 162.086172 -8.090933
1029.041121 142.217793 -6.243565
1029.236015 251.014534 -17.909152
324.148777 236.457404 -37.224995
510.834787 230.094309 -1.769706
1028.977966 139.590846 -10.513834
1029.013381 155.959542 -27.775785
564.025334 179.677421 -26.330014
329.759178 240.097349 -36.883590
1029.030631 206.195502 -29.210784
633.956797 169.069047 -6.935062
1029.122752 191.332256 -15.803695
1029.022018 152.098673 -9.721617
1028.979961 185.456998 -7.675500
26.627615 89.904662 -31.732924
1029.034602 250.235039 -24.035320
814.762880 180.657510 -12.186613
372.583433 59.776160 -12.460715
-194.790282 219.050940 -6.182187
1029.121923 139.486113 -10.572183
967.829823 126.328664 -6.156416
1029.016906 187.725508 -9.274138
628.065390 220.653759 -27.808767
1029.281845 164.317919 -10.568704
90.324254 254.936478 -37.684016
710.341247 319.404446 -6.013279
97.474165 284.842440 -35.997882
523.550254 5.358235 -8.690417
400.884835 273.474580 -5.355285
1029.080642 139.809185 -8.448109
533.853130 143.166126 -2.411538
1029.190996 251.339016 -24.093351
770.421841 213.557486 -8.254008
-106.928960 213.935958 -19.389729
139.794657 215.382310 -37.222370
1029.091622 188.026010 -8.426024
490.560856 99.429698 -1.480941
1029.233175 246.857364 -23.058501
662.010648 373.748283 -26.114881
1029.182799 226.565878 -26.855878
785.492914 172.441497 -24.410741
1029.001557 265.025473 -24.043119
1029.035127 184.774956 -22.472807
1029.077783 191.459570 -6.368736
1029.147602 265.728428 -24.808093
1028.979811 266.614511 -21.884949
679.073933 373.705428 -23.840665
89.816707 178.339860 -26.305368
378.075462 7.721897 -0.963226
1029.072314 141.391280 -11.738849
654.043351 72.136258 -5.304757
1029.042814 142.222528 -5.287601
742.934193 310.515836 -6.842173
929.770854 214.759781 -17.770650
</DataArray>
</Points>
<PointData>
<DataArray NumberOfComponents='1' type='Int32' Name='ParticleType' format='ascii'>
1
1
1
1
1
1
1
1
1
1
1
1
1
1
1
1
1
1
1
1
1
1
1
1
1
1
1
1
1
1
1
1
1
1
1
1
1
1
1
1
1
1
1
1
1
1
1
1
1
1
1
1
1
1
1
1
1
1
1
1
1
1
1
1
1
1
1
1
1
1
1
1
1
1
1
1
1
1
1
1
1
1
1
1
1
1
1
1
1
1
1
1
1
1
1
1
1
1
1
1
1
1
1
1
1
1
1
1
1
1
1
1
1
1
1
1
1
1
1
1
1
1
1
1
1
1
1
1
1
1
1
1
1
1
1
1
1
1
1
1
1
1
1
1
1
1
1
1
1
1
1
1
1
1
1
1
1
1
1
1
1
1
1
1
1
1
1
1
1
1
1
1
1
1
1
1
1
1
1
1
1
1
1
1
1
1
1
1
1
1
1
1
1
1
1
1
1
1
1
1
1
1
1
1
1
1
1
1
1
1
1
1
1
1
1
1
1
1
1
1
1
1
1
1
1
1
1
1
1
1
1
1
1
1
1
1
1
1
1
1
1
1
1
1
1
1
1
1
1
1
1
1
1
1
1
1
1
1
1
1
1
1
1
1
1
1
1
1
1
1
1
1
1
1
1
1
1
1
1
1
1
1
1
1
1
1
1
1
1
1
1
1
1
1
1
1
1
1
1
1
1
1
1
1
1
1
1
1
1
1
1
1
1
1
1
1
1
1
1
1
1
1
1
1
1
1
1
1
1
1
1
1
1
1
1
1
1
1
1
1
1
1
1
1
1
1
1
1
1
1
1
1
1
1
1
1
1
1
1
1
1
1
1
1
1
1
1
1
1
1
1
1
1
1
1
1
1
1
1
1
1
1
1
1
1
1
1
1
1
1
1
1
1
1
1
1
1
1
1
1
1
1
1
1
1
1
1
1
1
1
1
1
1
1
1
1
1
1
1
1
1
1
1
1
1
1
1
1
1
1
1
1
1
1
1
1
1
1
1
1
1
1
1
1
1
1
1
1
1
1
1
1
1
1
1
1
1
1
1
1
1
1
1
1
1
1
1
1
1
1
1
1
1
1
1
1
1
1
1
1
1
1
1
1
1
1
1
1
1
1
1
1
1
1
1
1
1
1
1
1
</DataArray>
<DataArray NumberOfComponents='1' type='Int32' Name='ParticleID' format='ascii'>
0
1
2
3
4
5
6
7
8
9
10
11
12
13
14
15
16
17
18
19
20
21
22
23
24
25
26
27
28
29
30
31
32
33
34
35
36
37
38
39
40
41
42
43
44
45
46
47
48
49
50
51
52
53
54
55
56
57
58
59
60
61
62
63
64
65
66
67
68
69
70
71
72
73
74
75
76
77
78
79
80
81
82
83
84
85
86
87
88
89
90
91
92
93
94
95
96
97
98
99
100
101
102
103
104
105
106
107
108
109
110
111
112
113
114
115
116
117
118
119
120
121
122
123
124
125
126
127
128
129
130
131
132
133
134
135
136
137
138
139
140
141
142
143
144
145
146
147
148
149
150
151
152
153
154
155
156
157
158
159
160
161
162
163
164
165
166
167
168
169
170
171
172
173
174
175
176
177
178
179
180
181
182
183
184
185
186
187
188
189
190
191
192
193
194
195
196
197
198
199
200
201
202
203
204
205
206
207
208
209
210
211
212
213
214
215
216
217
218
219
220
221
222
223
224
225
226
227
228
229
230
231
232
233
234
235
236
237
238
239
240
241
242
243
244
245
246
247
248
249
250
251
252
253
254
255
256
257
258
259
260
261
262
263
264
265
266
267
268
269
270
271
272
273
274
275
276
277
278
279
280
281
282
283
284
285
286
287
288
289
290
291
292
293
294
295
296
297
298
299
300
301
302
303
304
305
306
307
308
309
310
311
312
313
314
315
316
317
318
319
320
321
322
323
324
325
326
327
328
329
330
331
332
333
334
335
336
337
338
339
340
341
342
343
344
345
346
347
348
349
350
351
352
353
354
355
356
357
358
359
360
361
362
363
364
365
366
367
368
369
370
371
372
373
374
375
376
377
378
379
380
381
382
383
384
385
386
387
388
389
390
391
392
393
394
395
396
397
398
399
400
401
402
403
404
405
406
407
408
409
410
411
412
413
414
415
416
417
418
419
420
421
422
423
424
425
426
427
428
429
430
431
432
433
434
435
436
437
438
439
440
441
442
443
444
445
446
447
448
449
450
451
452
453
454
455
456
457
458
459
460
461
462
463
464
465
466
467
468
469
470
471
472
473
474
475
476
477
478
479
480
481
482
483
484
485
486
487
488
489
490
491
492
493
494
495
496
497
498
499
</DataArray>
<DataArray NumberOfComponents='1' type='Int8' Name='IsActive' format='ascii'>
1
0
1
1
0
1
0
1
1
1
0
1
1
1
1
0
1
0
1
0
1
1
0
1
0
0
0
0
1
1
1
1
0
0
0
1
0
0
1
0
1
1
1
0
1
1
1
1
0
1
0
1
0
1
1
0
1
1
0
1
1
0
1
1
0
1
1
0
0
0
0
1
0
0
1
1
1
0
1
1
1
0
0
0
0
1
0
0
0
0
1
0
0
0
0
1
1
1
0
0
0
1
0
1
1
0
0
0
1
0
0
1
1
0
0
0
1
0
1
0
1
1
0
0
1
1
0
1
0
0
1
1
0
0
0
0
0
0
0
1
0
0
1
0
0
1
1
0
0
0
0
1
0
0
0
1
0
1
1
1
1
1
0
0
1
1
0
1
1
1
1
0
0
1
0
1
1
0
1
0
0
0
0
0
1
0
0
1
1
1
0
0
0
1
1
0
0
1
0
0
0
0
1
0
1
0
1
0
0
1
0
0
0
0
0
0
0
1
0
1
0
1
1
0
0
0
1
0
1
0
0
0
1
0
0
1
0
1
1
0
1
1
0
0
0
1
1
0
1
1
0
0
0
0
0
1
0
1
1
1
1
1
0
1
0
0
1
1
0
1
0
1
0
1
0
1
0
0
0
1
0
0
0
0
0
1
0
1
0
1
1
0
0
1
1
1
0
1
0
1
1
0
0
0
1
0
0
0
1
0
0
1
1
0
0
1
0
1
0
1
0
0
1
1
1
0
1
0
0
0
1
1
1
0
1
0
1
1
1
0
0
1
0
0
1
0
1
0
1
1
0
0
1
0
1
1
1
0
0
0
0
0
0
0
1
1
1
1
1
1
1
1
0
0
0
1
1
0
0
0
0
0
1
0
1
0
0
1
1
1
0
1
0
0
0
1
0
1
0
1
1
1
0
1
0
0
1
0
1
0
1
0
0
1
0
0
0
0
1
0
0
1
1
0
0
0
0
1
0
0
0
1
0
0
1
1
0
0
0
1
0
1
0
0
1
0
0
0
0
1
1
0
0
1
1
0
1
0
0
0
1
0
1
0
1
0
1
0
1
0
1
1
1
1
0
0
1
0
1
1
1
0
1
0
1
0
1
0
0
0
0
0
1
1
0
0
1
0
1
1
</DataArray>
<DataArray NumberOfComponents='1' type='Int32' Name='ParticleTetID' format='ascii'>
57098
-61515
7813
75350
-58962
6822
-66558
73963
57098
12187
-66561
98736
23833
56665
62750
-64917
69139
-68099
22917
-66554
75838
51949
-58961
81758
-64916
-70586
-61515
-61512
26225
60375
61204
87720
-68099
-72204
-112396
58467
-66561
-66555
56102
-66557
59888
76502
45269
-66560
62971
9502
27898
71735
-64920
63147
-64914
66908
-61515
31229
19262
-61512
52130
7376
-64917
63653
39831
-64914
69987
68837
-72213
30238
74069
-64917
-66552
-66551
-66552
9323
-112396
-64916
64892
59720
57308
-58965
72689
69520
64603
-72207
-64920
-66554
-58961
78266
-68099
-61515
-66557
-66558
32057
-64917
-72207
-66561
-61515
136004
27468
70814
-64919
-66548
-66561
38668
-58962
3810
5067
-58955
-61518
-59786
6361
-66554
-66554
2273
29682
-61518
-70584
-58965
87804
-64914
7886
-61518
37995
66944
-64917
-66554
63005
40066
-146594
62681
-58962
-66560
35191
7489
-64914
-66588
-61518
-59791
-61512
-72207
-112396
7490
-72210
-58965
66454
-61512
-58955
70777
61389
-58955
-59791
-156163
-66588
57673
-61515
-58955
-68105
32460
-66551
5396
41293
43994
63004
30066
-64916
-58958
74682
75246
-64914
45154
69395
70852
1753
-66560
-58958
62912
-61511
79888
10690
-61514
63059
-58958
-72213
-64919
-61512
-68099
98736
-68105
-64919
60179
9313
5456
-58962
-61518
-59783
62942
29756
-66558
-59786
63490
-59783
-66560
-58958
-58965
29753
-66557
65615
-59786
52507
-64914
-66551
7308
-63044
-72207
-64916
-68102
-66561
-59788
-61511
62942
-61512
37779
-58955
71919
29177
-61518
-58955
-66551
63173
-84717
66897
-61512
-66561
-136563
51911
-59785
-66551
26103
-61518
62687
63151
-68099
52680
71949
-61521
-61512
-58958
65819
63140
-68100
57835
36753
-72204
-72207
-68103
-68102
-64917
74053
-61518
410
5614
59905
43694
57620
-66554
61658
-64913
-66551
34469
19217
-61521
19028
-64920
2213
-61514
49810
-61515
18280
-61517
-59786
-64916
62954
-64920
-64916
-66561
-64920
-61512
27323
-66564
29666
-58961
78472
73279
-61512
-58955
19262
100242
63067
-66551
44924
-61518
7472
28768
-66555
-58952
-126563
70526
-66558
-61514
-68103
34269
-64919
-66561
7559
67707
-66555
-66551
7508
-61520
76250
-64920
63077
-58965
-58955
68989
69969
69024
-72207
74612
-66560
-59786
-61512
27470
17172
65836
-66557
28114
-66557
51548
71279
72668
-58962
-58955
48847
-66551
-68105
38103
-61518
24804
-58958
79967
67469
-61512
-66561
11287
-61515
42410
9478
61961
-68102
-64914
-68105
-58955
-66551
-68100
-58961
95134
65831
57123
82198
6832
68492
68913
18866
-61511
-64920
-59788
67849
52852
-66548
-61512
-68102
-66557
-66551
63651
-66551
2276
-112399
-58955
63116
63404
5621
-64919
7469
-61518
-61512
-66555
52053
-66552
28563
-61518
7310
62969
7696
-66558
24587
-64920
-66551
52579
-66552
68837
-59786
59241
-66561
-66588
16996
-61518
-66560
-61511
-58956
43709
-61518
-58965
94061
68851
-72210
-61509
-61518
-59791
60877
-66551
-126559
-61518
65831
-72207
-66554
2276
25144
-61512
-61518
-64913
52323
-66591
77159
-58955
-66557
70388
-59791
-59782
-66548
-64916
36935
66386
-66551
-66561
79930
32075
-72213
58235
-61515
-66552
-61512
47136
-64919
63059
-84632
9505
-66551
57439
-61512
68990
-59783
31606
62192
37383
61403
-127033
-66551
60066
-64919
63005
10069
91329
-61512
52146
-64919
63299
-58965
76726
-68105
-61518
-61508
-68105
-68106
63443
98736
-153844
-66551
63740
-66548
64335
59803
</DataArray>
<DataArray NumberOfComponents='3' type='Float32' Name='vels' format='ascii'>
0.099894 -0.001933 0.000469
2.941750 0.743093 0.251364
0.211284 0.060763 -0.001297
0.080753 -0.003866 0.000154
4.011166 -0.808442 0.007605
0.262462 -0.037742 -0.000333
5.291425 0.658114 0.015048
2.751965 0.227617 -0.002629
0.416900 -0.035806 0.001466
0.705653 -0.214978 0.000079
4.043204 0.516567 -0.062035
0.004493 -0.002992 0.018314
1.038888 -0.122593 -0.000050
0.749876 0.130558 -0.001602
0.177463 0.000887 0.001264
4.781214 -0.633258 0.223552
0.105684 -0.000033 0.014715
1.841632 -0.359408 0.096556
0.227455 0.001271 -0.001547
4.618366 0.202199 0.374453
2.154658 -0.689336 -0.054031
2.016537 0.426728 -0.009572
3.564954 -0.948543 -0.100939
0.004065 0.000771 0.001024
5.081494 -0.728568 0.061442
2.709453 -0.571234 0.037044
2.890267 0.733475 0.271122
2.291721 0.555347 0.251364
0.542392 -0.854076 0.002334
2.490399 -0.635962 0.006585
0.376038 0.000614 0.000665
-0.009202 -0.013219 -0.003892
3.213363 -0.761119 -0.003224
1.656845 -0.012767 0.231690
30.832558 8.406263 0.242404
1.191137 0.034646 -0.011678
3.361597 0.485264 0.057820
5.072144 0.616756 0.203979
0.131171 0.500063 0.008467
4.822554 0.159554 -0.071552
1.287379 0.421710 0.018416
0.508691 0.018858 -0.000750
1.627871 -4.148637 0.001909
3.522981 0.454183 -0.022000
1.272441 -0.014850 -0.000382
0.019251 0.000030 -0.000005
0.007366 -0.001732 -0.000012
1.784597 -0.004565 -0.006400
5.038774 -0.652624 0.013047
0.357949 0.001814 0.002028
2.926561 -0.297746 0.581025
1.040178 -0.093345 -0.000321
2.831417 0.656188 0.157502
0.869033 1.398765 0.001665
0.000327 0.000067 -0.000301
2.459462 0.587685 0.168515
0.320859 0.283730 -0.001106
0.029816 -0.000036 0.000835
4.325011 -0.485807 0.474073
0.054530 0.015943 0.000177
3.039259 -2.269679 0.009347
3.009809 -0.323029 0.523657
1.064507 -0.260236 0.003921
0.058913 0.000094 0.001393
1.625300 0.032475 -0.102624
1.082468 -0.638002 -0.001105
0.322881 0.280135 -0.000123
4.340364 -0.231916 0.365021
3.114425 0.129711 0.500337
4.121013 0.480241 0.104173
3.314428 0.340714 0.441299
0.631441 -0.008777 0.002157
46.675339 14.517866 -0.076229
4.966831 -0.741021 0.103249
0.353392 0.001340 0.001225
0.000330 0.000263 -0.001397
1.328255 -0.011829 -0.008410
4.058145 -0.762731 -0.344492
0.018023 -0.000023 -0.000120
1.370041 0.019367 0.001789
0.870832 0.166296 0.000911
2.447300 0.404613 0.136695
4.955756 -0.666599 0.026369
5.270291 0.597518 0.093265
3.790543 -0.755850 0.004429
0.553901 0.134693 0.001402
3.198346 -0.576469 0.091015
2.891380 0.658313 0.072510
4.708169 0.714293 0.041555
5.286538 0.662013 0.016323
0.070469 0.034437 -0.000073
4.335292 -0.493674 0.469468
2.376679 0.415278 0.303110
3.978817 0.514039 -0.035953
2.925429 0.736889 0.253986
5.596775 -2.124649 0.027456
0.623895 -0.246643 0.000401
1.412938 -0.159842 -0.002366
4.657912 -0.665986 -0.017331
0.402313 0.016930 0.069481
4.122142 0.520750 -0.092827
1.109523 -0.083659 -0.002929
4.068510 -0.838672 0.002245
-0.001785 -0.000011 0.001923
0.043810 0.007100 0.000909
3.529941 -0.711878 0.030954
2.701473 0.675651 0.006233
5.068028 0.739679 0.098900
0.091700 0.014756 -0.000342
5.282705 0.607003 0.090999
4.672356 0.220515 0.340548
0.001296 0.000809 0.000873
0.376739 0.248718 0.000235
2.719856 0.689432 0.014472
1.875758 -0.371275 0.170103
3.526443 -0.813141 -0.314200
0.036397 0.017252 -0.037161
2.977139 -0.317598 0.549789
0.030423 0.008918 -0.000622
2.856396 0.655576 -0.021302
0.796656 1.051186 0.001800
1.202267 -0.044942 -0.001943
5.097804 -0.739710 -0.004191
5.187976 0.534039 0.131804
1.075620 -0.011506 -0.000579
-0.006906 -0.001921 -0.000048
0.063052 -0.112684 0.126129
0.030345 0.000065 0.000220
3.941319 -0.939718 0.019078
3.094111 0.466580 0.051646
3.521955 -0.392158 -0.006431
0.376351 0.003313 0.000390
2.947628 -0.317004 0.559127
3.315421 0.229466 0.303735
3.114699 0.812712 -0.006021
3.981705 0.784788 -0.179278
2.397503 0.576482 0.045044
2.262234 -0.103763 0.199135
46.605008 17.425592 -0.121316
0.006384 0.000001 -0.001185
2.453705 0.036037 -0.002453
3.273935 -0.703619 -0.146819
0.710337 0.052497 0.000241
2.267504 0.537684 0.170558
3.031390 -0.650702 0.168210
1.007675 -0.247411 -0.000332
0.071366 0.000095 -0.000679
3.485382 -0.705401 0.047642
4.244217 0.718171 -0.088138
0.078912 -0.035162 -0.038296
3.309975 0.272851 0.268077
1.268531 -0.258924 0.002794
3.143853 0.750221 0.009430
3.065246 -0.673178 0.198509
4.241233 -0.744797 0.007929
1.343309 0.446235 0.000272
3.991307 0.425104 0.155119
0.007525 0.000005 0.000144
2.080792 -2.443042 -0.005283
0.831695 0.229459 0.025674
0.554458 -0.002939 0.000489
0.908990 0.407464 0.000204
4.864729 -0.743999 0.144699
4.023324 -0.834694 0.046985
0.038180 0.101649 0.003328
1.362364 0.015778 -0.041247
2.983754 -0.330680 0.536378
0.000341 0.001799 -0.001150
0.004769 0.000002 -0.000674
1.025594 0.012325 0.001592
1.243907 -0.098269 0.004853
2.912069 0.446903 0.058844
4.195891 -0.823559 0.007726
0.581168 -0.007031 -0.002197
3.421469 0.801853 0.232091
1.526386 0.013977 0.007036
-0.000078 0.000020 0.000128
3.917611 0.961390 0.066384
0.010443 0.000008 0.001493
3.998002 -0.839101 0.052347
2.110943 0.365026 -0.216448
4.558290 -0.718325 -0.153658
2.517882 0.602668 0.087560
2.602964 -0.618944 0.038887
0.000238 0.000582 -0.000195
3.746715 -0.624846 0.010220
4.537418 -0.639668 -0.001990
3.107154 -0.833457 0.014230
1.446837 -0.021812 -0.000569
0.012474 0.001940 -0.000775
4.022468 -0.876011 0.007542
3.114020 0.835475 0.004567
4.032579 0.575637 0.282121
0.157605 -0.000723 -0.000383
0.062567 0.041910 0.000446
5.273003 0.663612 0.018242
5.040750 0.742126 0.111195
0.320179 0.087824 0.001343
4.238118 0.605920 0.212747