<VTKFile type='UnstructuredGrid' version='1.0' byte_order='LittleEndian' header_type='UInt64'>
<UnstructuredGrid>
<Piece NumberOfCells='500' NumberOfPoints='500'>
<Points>
<DataArray NumberOfComponents='3' type='Float32' Name='Position' format='ascii'>
215.378457 193.993626 -4.936065
1029.059357 188.209033 -16.808274
-313.719591 330.037567 -5.960514
-32.088764 281.314731 -10.420995
1029.278797 232.304881 -20.074967
-266.824541 130.936609 -2.194385
1029.253611 152.748402 -21.930599
483.636967 248.670521 -5.616562
164.580161 191.817605 -5.132138
-204.062748 269.398331 -5.003748
727.348554 87.286845 -29.417071
-53.419778 13.629695 -29.765508
-238.385773 221.929919 -6.053540
-23.820591 160.643947 -3.965770
499.964186 205.700509 -5.061293
492.974767 302.712576 -15.386979
601.547796 167.220020 -6.715091
662.681211 358.726538 -12.284431
-330.353480 286.572482 -6.543003
1029.193912 138.980634 -19.474711
704.428012 135.757554 -13.205423
-16.178313 91.516652 -4.447032
1029.076102 228.539705 -26.569211
251.482793 340.231461 -14.824114
832.874230 297.097490 -17.237624
1021.721449 209.923304 -16.553558
-79.039397 213.526106 -23.769106
898.026362 177.161997 -9.040398
-44.351005 320.805148 -37.518661
260.647785 312.807094 -7.151322
567.794276 205.093400 -12.794357
-55.054237 159.927007 -2.611915
383.611364 382.877845 -7.493580
676.859018 221.488768 -9.694511
102.250873 278.348588 -19.773090
561.947461 193.778818 -8.531136
974.416240 146.107735 -27.191095
1029.321351 153.281068 -16.377951
327.405652 102.776409 -33.450286
963.509063 129.838518 -26.438661
342.184663 24.717507 -6.123313
88.066358 201.588214 -3.968804
-12.190498 177.662237 -37.000644
302.878461 73.153075 -32.385528
584.125305 214.507606 -17.690545
-317.202714 217.606738 -37.678658
-27.698611 87.294125 -35.208026
634.537502 217.635806 -9.138204
497.675712 340.902696 -22.670134
573.615654 191.662650 -7.282555
762.410750 312.973029 -10.732533
76.780822 233.532613 -6.620268
1011.984309 186.380254 -17.242595
-5.870471 301.044279 -37.311513
-491.700194 186.567635 -1.862938
614.070640 161.082154 -8.163807
57.281520 279.349943 -5.566974
-452.192222 182.498073 -31.920858
826.551116 300.969084 -16.957249
492.783694 5.040681 -11.375334
-41.834175 148.007157 -34.062444
770.564556 311.767247 -10.324677
244.650115 321.546819 -9.553201
598.421159 181.912162 -10.813762
665.458362 226.094610 -28.617956
-61.795381 267.834099 -37.421000
491.514615 91.556592 -36.596259
859.677166 306.371244 -19.439326
729.745022 66.656596 -7.741295
1029.030335 140.847806 -10.327024
690.722847 73.118576 -10.887347
-361.084918 183.666060 -34.975843
332.634786 368.249061 -21.735006
920.496419 275.428460 -18.103232
-6.161591 241.001280 -3.027114
350.563646 238.549154 -32.648648
608.523313 217.564078 -28.690822
1029.088630 226.583231 -26.791639
569.817413 197.812904 -9.063684
618.923167 181.801162 -13.374200
-71.971414 113.131203 -6.872818
694.483137 182.363399 -13.638569
687.726119 325.475241 -21.713558
1029.275264 140.263570 -17.033113
1029.110714 228.986199 -22.802082
-21.788839 162.377955 -3.636320
332.558453 367.420921 -12.645486
943.912944 178.332894 -16.122362
1029.304192 140.303527 -20.675616
1029.296586 152.742705 -21.728450
-17.004098 234.234031 -35.335049
847.333493 296.716021 -16.854800
679.226406 179.159759 -14.506945
753.425086 92.842718 -29.306634
1008.541082 182.662401 -17.170023
-62.870686 235.117227 -2.624162
-118.073798 225.713469 -2.476950
513.074984 255.606865 -6.193679
606.897692 335.643707 -23.394785
709.072035 59.113464 -6.849991
780.503950 96.735119 -29.679832
-181.841309 369.747689 -12.089530
330.379297 277.637756 -23.355514
-432.218978 176.917749 -26.666206
-391.077953 245.617586 -19.999708
964.945619 241.305466 -10.464291
-27.945815 206.642587 -24.083944
1029.318341 165.992030 -17.959244
-365.184622 248.917074 -19.864974
991.840475 133.580992 -17.029730
1029.189046 140.141349 -19.420439
-502.180386 192.253861 -9.935095
2.453554 315.253969 -3.396593
653.404154 169.545382 -20.143064
619.385621 235.438861 -7.716447
729.698359 251.927562 -28.717255
315.456629 180.090501 -26.656223
626.173024 338.627900 -10.440580
-312.422997 332.959572 -5.439711
306.263871 167.690177 -27.107813
-94.033303 23.007379 -35.940953
511.702153 117.144636 -4.958870
563.464729 351.695010 -14.990932
1029.386622 140.349597 -17.517165
594.458494 215.257681 -8.837881
-18.056518 323.435179 -33.858200
377.639320 41.467018 -2.348081
571.136112 208.790833 -7.182077
956.822396 241.542946 -21.950239
697.559745 58.291766 -28.370851
-168.269921 75.532360 -4.779096
-307.130214 213.276471 -5.124585
787.181066 307.148721 -10.391148
1029.115912 138.104862 -11.754595
697.633605 167.757202 -23.811174
816.949112 152.946902 -27.756047
551.446687 164.191235 -8.202450
677.074264 220.716741 -17.462066
316.800802 364.214623 -22.815301
-315.291382 211.477331 -3.572308
621.738997 180.177860 -20.170179
812.374282 243.790299 -27.361331
464.214462 70.766205 -36.534501
952.354062 175.741700 -9.141432
1028.982673 228.031097 -11.093356
294.030499 360.327959 -10.527353
466.240323 5.644832 -19.528484
932.000838 241.387844 -10.534787
787.164289 154.965788 -29.138795
381.472231 52.266270 -10.001146
888.751828 98.226309 -11.314152
501.349904 318.636149 -6.067706
1029.072949 189.720784 -13.672791
1029.126679 229.823613 -11.368067
569.568302 369.410979 -22.279868
-266.747028 339.660664 -13.085634
537.505854 37.596304 -10.987178
-260.674984 180.731211 -32.134306
-74.517478 224.347437 -2.974143
-128.845939 225.470482 -5.583793
622.750930 220.817643 -12.468352
-289.910378 333.901913 -13.163930
824.167329 297.969089 -18.505605
-33.062344 287.201153 -21.614377
48.027013 178.844600 -6.605958
636.128512 217.509806 -13.644307
667.460702 331.079098 -10.148933
315.727745 182.223633 -25.676682
478.439237 3.629531 -13.028389
284.294889 43.304148 -14.492466
-252.725164 350.682642 -19.048902
727.862004 65.998412 -27.758826
1029.312762 229.305865 -15.668280
475.470983 226.032054 -4.365676
719.515832 172.226545 -13.058688
658.055585 178.270956 -12.320237
-521.942096 274.735190 -37.133037
593.984956 168.956750 -19.571560
631.014014 185.967527 -9.637070
1029.259166 229.986926 -17.220021
621.523765 180.140372 -27.256682
494.627066 311.578291 -25.402995
590.033682 161.858036 -8.005322
566.842164 362.054703 -10.021893
90.114807 179.090131 -27.047897
747.368922 339.635016 -23.645010
705.947859 323.395978 -23.127758
118.263434 271.244691 -17.500654
-293.541130 176.229651 -19.990475
-286.992481 289.907027 -3.342898
75.867908 254.174168 -24.498295
790.176644 172.648313 -24.116332
726.474365 137.210706 -12.342875
582.260885 214.198456 -28.644505
-38.155020 332.592590 -2.762667
1029.246652 152.097065 -21.274371
1029.238727 166.185289 -18.220476
497.336305 5.526761 -12.212512
905.270718 161.092805 -11.210647
700.101039 59.482551 -28.269639
1028.978325 226.681346 -19.098767
967.858182 239.818893 -26.245332
-1.181008 313.491343 -34.873020
749.289633 90.951083 -26.431059
447.308345 4.319747 -5.075827
1029.134247 165.425647 -17.916420
-52.050662 82.945811 -4.886106
528.015731 320.073323 -10.247955
1029.191202 138.906774 -12.100933
-309.589112 182.265440 -2.333206
602.579744 214.765655 -15.916201
982.652388 220.821131 -15.280659
719.869892 315.675417 -18.642038
863.181634 307.099649 -18.545844
701.540671 59.488160 -26.960035
1029.125480 163.915666 -20.865933
769.144977 172.529450 -12.109787
574.766717 212.384463 -28.547593
662.982298 171.960077 -11.151853
-107.757525 17.743749 -34.351676
1029.130325 227.908705 -11.363294
-173.934197 179.708869 -29.455316
-170.656745 70.017770 -34.235417
847.062059 178.142358 -20.936067
1029.089074 228.582486 -11.134421
608.407631 37.765136 -11.823168
615.485234 179.125784 -25.950725
-19.406323 221.620913 -35.951762
464.904811 5.624203 -19.574397
537.816964 157.229053 -7.979433
758.743943 92.891411 -28.058985
12.905495 254.156800 -3.313114
6.504246 231.727924 -36.078021
935.054555 149.952626 -15.315051
459.510351 23.035101 -8.679046
77.594169 314.221195 -7.092883
839.007874 177.779814 -20.487274
-20.507865 225.433374 -33.083888
373.046653 240.389342 -13.061784
349.874764 363.076570 -8.399134
-21.253683 98.397274 -34.748485
553.362385 193.341854 -8.091577
737.006002 166.413767 -26.373314
716.764212 168.699813 -9.066234
1029.088616 227.990706 -18.525192
-100.526219 215.396741 -29.232093
566.855428 198.937671 -28.505865
301.822874 362.029107 -13.189707
358.967649 24.241734 -3.551139
-80.182203 111.667851 -34.480587
615.920805 220.233284 -8.193919
752.605899 219.337796 -16.580920
618.039696 370.410486 -15.049604
553.225345 365.907041 -17.474249
863.061403 304.278301 -16.997806
-56.702554 183.589233 -4.879555
311.460835 143.650530 -24.961166
-250.626612 353.478902 -31.106650
-206.805232 310.638731 -36.987575
493.027676 207.448848 -6.478381
318.386260 188.462420 -17.795973
10.873605 239.224011 -3.471886
1028.992364 140.724015 -18.226469
660.477485 188.267384 -14.318573
809.740591 303.516562 -12.028812
1028.982169 140.578835 -8.523235
-60.022980 177.438183 -36.863254
-498.803804 188.698097 -24.627428
903.834555 176.292045 -26.550332
-226.641387 269.837608 -4.086125
792.637125 306.620218 -21.646228
-405.664100 126.121630 -35.768469
1029.055936 181.494904 -18.997324
-138.152884 173.142616 -12.728401
1029.168282 189.604127 -16.148881
-258.569868 175.501662 -26.309257
708.286727 170.950284 -25.892588
725.512515 139.061813 -19.737844
903.710808 284.395266 -17.936203
635.790555 220.610216 -19.006961
787.683122 307.835826 -21.528221
905.776581 284.565807 -18.940696
721.105267 63.143804 -27.141274
595.536185 354.190303 -21.901868
563.553643 167.892725 -7.639291
-132.963543 110.992837 -34.196174
777.394826 79.445144 -33.288729
-34.877196 359.243168 -4.337129
928.572889 242.023746 -23.546049
-105.063839 278.772942 -31.791709
513.623168 309.006929 -6.273071
938.397207 174.384273 -9.337436
1029.062089 229.606706 -11.842059
-492.425273 185.853226 -3.065602
-94.310958 30.140225 -33.858628
566.931051 189.149598 -29.292838
1029.055737 139.105929 -11.640209
-186.632728 121.140304 -31.723369
591.734694 169.712207 -20.313209
-342.827423 211.227319 -4.566024
-217.248849 216.865670 -12.648147
903.586401 117.963392 -17.617295
557.112458 260.255926 -6.954860
411.591621 245.039275 -3.410562
520.777136 196.572610 -7.533317
985.612809 146.601972 -22.689770
852.710132 177.827484 -19.531706
220.812874 256.942381 -19.851935
-131.995292 65.907229 -33.410605
509.409847 321.945601 -24.062127
854.427448 110.389027 -27.832544
-367.809974 211.433083 -36.790016
-229.141900 341.307750 -26.698524
1029.273908 151.732683 -17.452964
1029.014351 139.407205 -11.818104
-277.282899 214.566895 -4.236066
554.557817 154.733576 -32.199481
0.443931 190.527198 -3.782314
842.261710 294.710497 -21.104371
607.231450 186.660891 -11.498071
748.497396 249.682987 -28.307603
954.366585 242.003701 -10.318884
562.316781 202.015890 -29.371475
260.923459 339.754123 -9.525660
-38.029552 200.067075 -35.402355
975.887368 220.300925 -15.776695
11.199812 206.478949 -3.462312
549.919167 41.199192 -27.727509
822.521062 150.553204 -18.447159
625.261584 170.251555 -11.172785
-143.318054 220.950462 -2.964433
-217.612706 175.358211 -5.435420
315.772770 27.076362 -31.469644
1029.220334 140.786220 -22.054353
-32.801073 231.648429 -37.668951
1029.175277 141.288491 -25.554240
315.199874 182.438144 -32.684749
554.282340 266.857372 -34.773115
74.491654 202.292712 -5.959909
1029.228811 229.056026 -21.423484
910.064624 236.755837 -9.821177
-217.288670 219.367214 -32.315032
890.634694 102.551650 -10.324348
305.003135 337.163704 -28.132565
-52.917988 70.347413 -34.174818
729.205045 170.495086 -22.419770
-71.282504 353.787455 -2.536670
-59.534912 280.874734 -19.381269
313.343443 136.615174 -31.076188
440.573838 73.255553 -5.331648
902.232909 177.839633 -9.280993
725.222325 65.015326 -27.342000
-389.697181 310.804403 -6.151555
531.491465 162.193301 -15.586461
70.076138 286.020202 -6.093596
-324.530201 218.072483 -26.410887
213.416593 154.462513 -8.140151
814.607216 321.158594 -19.795476
557.616061 331.622934 -8.444099
389.622119 383.829456 -25.364300
1029.137774 227.226450 -10.712844
1029.144133 141.824809 -12.094427
318.753101 357.975403 -8.554441
1029.072346 230.843770 -24.585391
-100.642551 17.040893 -31.785760
300.859310 25.379750 -14.805062
-137.905358 211.887680 -27.764987
24.528572 261.255376 -35.808159
-252.181348 127.546506 -26.240091
581.895277 116.026194 -5.766233
-113.194624 214.673363 -29.145634
-237.389251 219.666641 -5.685329
956.258135 173.446999 -11.832339
489.408674 299.442438 -23.663705
1029.129728 164.701498 -20.667179
-86.219705 212.780511 -22.496234
387.766357 289.176116 -6.602999
339.968509 35.815217 -6.467932
659.160817 167.140023 -9.295620
829.038805 315.031377 -16.914352
1029.292222 139.341657 -20.537809
840.070591 90.551763 -8.868063
291.217535 57.661636 -7.323595
865.528593 96.192243 -9.063447
-501.683847 193.596413 -17.274634
422.364659 386.234165 -5.736371
977.328560 237.054675 -11.919092
583.289982 187.555768 -19.358844
511.964498 386.598718 -18.249678
-183.506895 27.921429 -11.385379
487.123628 300.964560 -25.474513
-421.923858 212.222924 -37.984149
955.186757 177.607783 -20.465220
460.940899 78.529964 -8.770068
1028.984297 152.167014 -15.410153
25.242486 238.812239 -34.307085
626.702727 39.020213 -6.832647
-61.016294 385.223594 -34.832392
685.664346 169.678708 -24.076919
-277.203334 178.358074 -5.448376
584.444032 214.639311 -9.248372
-361.423082 80.804017 -26.611634
12.677978 162.665306 -23.650863
-47.060455 375.570372 -36.034893
734.066577 318.592642 -22.901068
663.994172 48.248970 -7.727875
311.784956 152.021002 -5.251281
1029.189180 152.203793 -9.786901
604.213874 181.884427 -10.703841
763.090923 142.413036 -19.085341
470.087714 87.605497 -6.711921
758.418695 92.960850 -28.124534
502.571668 27.833899 -6.904843
-295.492798 338.602849 -12.481304
1028.992859 189.529076 -21.214293
313.467934 56.112939 -33.161408
837.571648 176.357389 -13.570493
22.797971 275.659626 -11.684885
-159.599631 215.078305 -11.238856
1029.067094 190.358882 -21.601804
676.315311 255.544199 -26.613148
-19.820649 92.640890 -35.748600
354.987533 327.786765 -7.055233
706.120415 183.101627 -20.250805
517.764461 156.121268 -7.223356
597.223407 168.328423 -23.583623
931.091121 154.546760 -28.564189
203.627802 195.379156 -5.855152
1021.011091 138.426565 -11.877312
393.784145 252.994867 -4.277067
514.862617 150.787803 -23.399218
295.140884 32.906955 -10.222943
871.267077 217.436722 -15.074326
50.104423 190.651220 -23.289937
-501.856172 193.810177 -17.669265
-43.793228 219.653672 -36.157584
738.304402 169.255732 -9.820319
1029.163817 184.148452 -21.974278
797.674278 301.955151 -10.322580
-51.082962 183.074396 -35.448559
1029.328978 136.843542 -18.881703
-11.133926 287.008633 -31.616601
1029.222021 229.310936 -11.098716
1029.172426 140.413768 -21.018412
-173.362961 182.028484 -22.022162
787.173409 149.066428 -28.942741
673.993627 126.734736 -7.509011
609.425131 46.307460 -6.589584
922.012794 275.643691 -18.086744
-1.944906 239.403763 -37.024094
-1.986298 253.191688 -3.100604
879.843151 98.608768 -10.425812
763.663689 96.099516 -28.204222
353.241684 231.725584 -27.014757
-25.606140 241.558147 -36.839981
640.866350 224.040480 -28.747471
38.896665 209.968701 -6.336920
893.028115 180.407890 -15.811196
1029.022018 152.098673 -9.721617
526.786021 145.130162 -8.138394
-228.075327 44.627487 -31.849920
574.921225 336.466693 -23.948212
540.993472 181.301011 -12.295672
-4.644840 225.009679 -35.451319
-274.118226 218.127658 -6.038719
731.496402 63.409730 -10.521732
440.617501 19.850995 -3.126114
934.395871 175.214687 -9.681550
37.653881 245.200966 -35.049244
813.359804 148.997118 -10.355764
-43.951664 320.468184 -37.655645
496.132090 290.654164 -6.132003
-51.809398 371.456350 -35.883852
62.241152 160.373722 -7.926218
400.884835 273.474580 -5.355285
760.994752 70.810675 -8.293938
17.730077 206.515213 -3.814541
471.537067 280.463172 -22.616529
588.318120 215.360836 -8.375214
-244.877349 213.470612 -19.394947
-53.136727 364.424852 -37.294690
716.443131 168.476407 -8.815169
-51.540769 181.434918 -3.192336
732.061485 309.928206 -22.987261
309.077972 358.458723 -30.483724
1029.182799 226.565878 -26.855878
-127.042709 215.066371 -29.321612
327.702191 361.017492 -30.220735
-64.227445 191.529520 -29.284537
523.533072 161.069933 -7.031928
676.269425 357.028396 -24.694957
698.423888 352.588337 -21.965262
249.164854 331.119380 -27.619953
89.985634 177.808889 -29.522578
207.811502 157.845351 -12.293210
1023.225080 140.901026 -12.198197
-87.404469 109.101941 -9.719218
628.271001 46.709898 -6.049840
5.321906 278.557208 -10.500428
639.231236 216.918177 -17.342211
</DataArray>
</Points>
<PointData>
<DataArray NumberOfComponents='1' type='Int32' Name='ParticleType' format='ascii'>
1
1
1
1
1
1
1
1
1
1
1
1
1
1
1
1
1
1
1
1
1
1
1
1
1
1
1
1
1
1
1
1
1
1
1
1
1
1
1
1
1
1
1
1
1
1
1
1
1
1
1
1
1
1
1
1
1
1
1
1
1
1
1
1
1
1
1
1
1
1
1
1
1
1
1
1
1
1
1
1
1
1
1
1
1
1
1
1
1
1
1
1
1
1
1
1
1
1
1
1
1
1
1
1
1
1
1
1
1
1
1
1
1
1
1
1
1
1
1
1
1
1
1
1
1
1
1
1
1
1
1
1
1
1
1
1
1
1
1
1
1
1
1
1
1
1
1
1
1
1
1
1
1
1
1
1
1
1
1
1
1
1
1
1
1
1
1
1
1
1
1
1
1
1
1
1
1
1
1
1
1
1
1
1
1
1
1
1
1
1
1
1
1
1
1
1
1
1
1
1
1
1
1
1
1
1
1
1
1
1
1
1
1
1
1
1
1
1
1
1
1
1
1
1
1
1
1
1
1
1
1
1
1
1
1
1
1
1
1
1
1
1
1
1
1
1
1
1
1
1
1
1
1
1
1
1
1
1
1
1
1
1
1
1
1
1
1
1
1
1
1
1
1
1
1
1
1
1
1
1
1
1
1
1
1
1
1
1
1
1
1
1
1
1
1
1
1
1
1
1
1
1
1
1
1
1
1
1
1
1
1
1
1
1
1
1
1
1
1
1
1
1
1
1
1
1
1
1
1
1
1
1
1
1
1
1
1
1
1
1
1
1
1
1
1
1
1
1
1
1
1
1
1
1
1
1
1
1
1
1
1
1
1
1
1
1
1
1
1
1
1
1
1
1
1
1
1
1
1
1
1
1
1
1
1
1
1
1
1
1
1
1
1
1
1
1
1
1
1
1
1
1
1
1
1
1
1
1
1
1
1
1
1
1
1
1
1
1
1
1
1
1
1
1
1
1
1
1
1
1
1
1
1
1
1
1
1
1
1
1
1
1
1
1
1
1
1
1
1
1
1
1
1
1
1
1
1
1
1
1
1
1
1
1
1
1
1
1
1
1
1
1
1
1
1
1
1
1
1
1
1
1
1
1
1
1
1
1
1
1
1
1
1
1
1
1
1
1
1
1
</DataArray>
<DataArray NumberOfComponents='1' type='Int32' Name='ParticleID' format='ascii'>
0
1
2
3
4
5
6
7
8
9
10
11
12
13
14
15
16
17
18
19
20
21
22
23
24
25
26
27
28
29
30
31
32
33
34
35
36
37
38
39
40
41
42
43
44
45
46
47
48
49
50
51
52
53
54
55
56
57
58
59
60
61
62
63
64
65
66
67
68
69
70
71
72
73
74
75
76
77
78
79
80
81
82
83
84
85
86
87
88
89
90
91
92
93
94
95
96
97
98
99
100
101
102
103
104
105
106
107
108
109
110
111
112
113
114
115
116
117
118
119
120
121
122
123
124
125
126
127
128
129
130
131
132
133
134
135
136
137
138
139
140
141
142
143
144
145
146
147
148
149
150
151
152
153
154
155
156
157
158
159
160
161
162
163
164
165
166
167
168
169
170
171
172
173
174
175
176
177
178
179
180
181
182
183
184
185
186
187
188
189
190
191
192
193
194
195
196
197
198
199
200
201
202
203
204
205
206
207
208
209
210
211
212
213
214
215
216
217
218
219
220
221
222
223
224
225
226
227
228
229
230
231
232
233
234
235
236
237
238
239
240
241
242
243
244
245
246
247
248
249
250
251
252
253
254
255
256
257
258
259
260
261
262
263
264
265
266
267
268
269
270
271
272
273
274
275
276
277
278
279
280
281
282
283
284
285
286
287
288
289
290
291
292
293
294
295
296
297
298
299
300
301
302
303
304
305
306
307
308
309
310
311
312
313
314
315
316
317
318
319
320
321
322
323
324
325
326
327
328
329
330
331
332
333
334
335
336
337
338
339
340
341
342
343
344
345
346
347
348
349
350
351
352
353
354
355
356
357
358
359
360
361
362
363
364
365
366
367
368
369
370
371
372
373
374
375
376
377
378
379
380
381
382
383
384
385
386
387
388
389
390
391
392
393
394
395
396
397
398
399
400
401
402
403
404
405
406
407
408
409
410
411
412
413
414
415
416
417
418
419
420
421
422
423
424
425
426
427
428
429
430
431
432
433
434
435
436
437
438
439
440
441
442
443
444
445
446
447
448
449
450
451
452
453
454
455
456
457
458
459
460
461
462
463
464
465
466
467
468
469
470
471
472
473
474
475
476
477
478
479
480
481
482
483
484
485
486
487
488
489
490
491
492
493
494
495
496
497
498
499
</DataArray>
<DataArray NumberOfComponents='1' type='Int8' Name='IsActive' format='ascii'>
1
0
1
1
0
1
0
1
1
1
1
1
1
1
1
1
1
1
1
0
1
1
0
1
1
1
1
1
1
1
1
1
1
1
1
1
1
0
1
1
1
1
1
1
1
1
1
1
1
1
1
1
1
1
1
1
1
1
1
1
1
1
1
1
1
1
1
1
1
0
1
1
1
1
1
1
1
0
1
1
1
1
1
0
0
1
1
1
0
0
1
1
1
1
1
1
1
1
1
1
1
1
1
1
1
1
1
0
1
1
0
1
1
1
1
1
1
1
1
1
1
1
1
0
1
1
0
1
1
1
1
1
1
0
1
1
1
1
1
1
1
1
1
1
0
1
1
1
1
0
1
1
0
0
1
1
1
1
1
1
1
1
1
1
1
1
1
1
1
1
1
1
0
1
1
1
1
1
1
0
1
1
1
1
1
1
1
1
1
1
1
1
1
1
1
0
0
1
1
1
0
1
1
1
1
0
1
1
0
1
1
1
1
1
1
0
1
1
1
1
0
1
1
1
0
1
1
1
1
1
1
1
1
1
1
1
1
1
1
1
1
1
1
1
0
1
1
1
1
1
1
1
1
1
1
1
1
1
1
1
1
1
0
1
1
0
1
1
1
1
1
1
0
1
0
1
1
1
1
1
1
1
1
1
1
1
1
1
1
1
1
1
0
1
1
1
0
1
1
1
1
1
1
0
1
1
1
1
1
1
1
1
1
0
0
1
1
1
1
1
1
1
1
1
1
1
1
1
1
1
1
1
1
0
1
0
1
1
1
0
1
1
1
1
1
1
1
1
1
1
1
1
1
1
1
1
1
1
1
1
0
0
1
0
1
1
1
1
1
1
1
1
1
1
0
1
1
1
1
1
0
1
1
1
1
0
1
1
1
1
1
1
1
1
0
1
1
1
1
1
1
1
1
1
1
1
1
0
1
1
1
1
1
1
0
1
1
1
1
0
1
1
1
1
1
1
1
1
1
1
1
1
1
1
1
1
1
0
1
1
0
1
0
0
1
1
1
1
1
1
1
1
1
1
1
1
1
1
0
1
1
1
1
1
1
1
1
1
1
1
1
1
1
1
0
1
1
1
1
1
1
1
1
1
1
0
1
1
1
1
1
1
1
1
1
1
1
1
1
1
</DataArray>
<DataArray NumberOfComponents='1' type='Int32' Name='ParticleTetID' format='ascii'>
35372
-61515
8048
4937
-58962
6896
-66558
52723
39188
6391
65118
5430
7472
8624
52220
52134
71103
73318
6625
-66554
66712
90
-58961
33000
65006
72638
18154
66945
12129
29703
74992
23996
24789
62915
31759
56813
69942
-66555
50973
57448
25345
27486
2932
25465
66752
7469
881
62681
51887
69681
71609
30223
73484
11482
19262
73571
29917
11390
61998
52943
19907
73283
28911
79906
65174
15820
54089
60163
59529
-66551
57640
34
26937
59822
5870
26167
68052
-58965
74957
61224
14367
63114
63731
-66554
-58961
8622
26932
59460
-66557
-66558
6261
65004
63132
64382
76274
3024
19045
66349
68933
58251
64436
9742
38225
3808
6109
70600
1612
-59786
5065
78739
-66554
2273
34525
57789
60123
69834
43696
69035
8048
46578
16991
59203
69541
-66554
62751
3527
-146594
59709
59573
56964
11450
9433
64301
-66588
59068
64218
58179
62918
26938
7454
61227
57810
52433
69069
-58955
33682
52405
75569
70754
-156163
58702
64801
-61515
-58955
57467
12676
71717
7286
22806
2071
61205
9760
61999
4943
33589
62682
56596
43697
54490
28988
11293
59540
-58958
52886
59332
63147
10690
64951
72959
-58958
61232
51598
68511
69537
98736
71651
65764
40112
7351
6716
30124
76727
62141
66756
12276
-66558
-59786
53068
78179
56964
-58958
70606
16936
62415
53264
-59786
20413
56523
-66551
7238
67418
78000
64267
58417
56964
-59788
74470
77485
71914
771
-58955
7394
395
68913
-58955
61006
68662
19781
53215
75191
64380
30728
31822
66102
51321
27651
68913
1292
82933
42051
105
57099
71416
59333
-58958
22314
74964
34564
46999
23021
68045
62972
67110
77534
58417
8264
45137
11299
7197
52273
45080
31808
-66554
63150
62213
-66551
13066
19217
67852
6446
64289
2213
-61514
6953
-61515
7283
58690
62144
78686
62683
74134
57372
58260
67817
58665
4695
66703
4502
57574
20965
70723
62789
-58955
19262
12381
73632
-66551
6890
64953
12961
7402
60452
66153
-126563
66461
69599
68840
38599
13155
66376
68592
2374
9264
-66555
-66551
7418
58189
30458
65007
65902
69258
59566
72446
39064
17189
65868
35046
68790
62072
57119
10404
7364
30811
-66557
1294
-66557
43700
66165
35479
-58962
76289
7412
58703
29624
20483
60311
11666
20455
51008
87483
67847
58136
10118
75895
29828
10774
25833
56761
76017
48521
-58955
-66551
29505
-58961
11210
29310
17040
28239
6778
72109
3902
7472
59243
52013
-59788
4239
82961
29935
57783
57590
-66557
60771
46965
57083
2276
-112399
70637
60434
69864
7763
52013
13282
59247
55139
-66555
26675
57819
1763
59267
7328
66749
11332
32985
1547
69905
74307
43706
-66552
79907
62054
52059
64380
67593
7961
-61518
46741
68910
24466
7511
-61518
59302
105
32853
65367
74397
64955
72174
39116
71338
127228
69113
27724
57300
33634
2276
14525
71410
-61518
64283
18575
-66591
12902
-58955
-66557
7391
64166
66731
61003
74545
5884
5870
71771
64380
49782
1097
62688
31915
71214
-66552
74055
9643
71884
64859
5921
7418
59531
53534
62788
25071
64211
12129
52003
753
99845
-127033
70311
42824
53937
70565
9547
2320
59333
18560
62307
29480
-58965
17384
32216
10453
75891
59843
60005
33008
98736
25834
71338
18471
58105
30136
62684
</DataArray>
<DataArray NumberOfComponents='3' type='Float32' Name='vels' format='ascii'>
1.224094 0.336666 -0.001498
2.941750 0.743093 0.251364
0.297745 0.086425 0.000607
1.303577 -0.425494 0.000170
4.011166 -0.808442 0.007605
0.418031 -0.064916 -0.000300
5.291425 0.658114 0.015048
1.316528 -0.195947 -0.034731
2.182388 -0.087733 -0.000794
0.523220 0.080178 0.000127
2.048391 0.385602 0.002906
0.854674 0.085659 -0.001007
0.006378 0.000032 -0.000705
0.972568 0.657046 -0.000784
0.030660 -0.022462 -0.000171
0.838357 0.929523 0.001192
1.211576 0.026135 -0.000525
1.775312 -0.431103 -0.000178
0.058507 0.009323 -0.001666
4.618366 0.202199 0.374453
0.172959 0.028157 -0.000413
0.471982 0.608904 0.000155
3.564954 -0.948543 -0.100939
0.451883 0.754065 -0.000347
2.936468 -0.566671 -0.000843
2.396067 -0.370740 0.073199
1.305440 -0.193426 0.001228
3.733661 0.035009 -0.003017
0.987974 -0.796099 0.000791
0.582676 0.724136 -0.000087
0.012174 0.038216 0.004521
0.746567 0.412541 0.000026
3.761899 0.653652 1.175665
0.567091 -0.003170 -0.000474
2.079262 -2.284703 0.001791
0.500545 -0.143420 0.015685
4.233365 0.753297 0.001593
5.072144 0.616756 0.203979
0.048013 -0.075672 0.000201
3.941982 0.963198 -0.000094
1.007798 -0.266840 0.034394
3.111874 -0.930992 -0.003992
0.004678 0.002105 -0.000000
-0.069164 -2.782862 -0.015413
0.006793 0.000016 0.000159
0.030272 0.000260 0.000956
0.268242 0.357563 0.000544
0.052031 0.000052 0.000466
0.341348 -0.041215 0.009351
0.299380 -0.164993 0.015327
1.861625 -0.368172 0.003373
0.351996 -0.182937 -0.000720
3.045148 0.872652 -0.026300
0.704490 -0.289113 -0.000119
-0.002246 0.000690 -0.000263
1.901705 0.058329 -0.000900
1.163305 -0.635053 -0.000559
0.020941 -0.000030 0.000635
3.228168 -0.655619 0.006981
0.516643 0.006236 0.000578
0.158984 0.103865 -0.000137
2.280879 -0.451749 0.001730
0.259900 0.639934 -0.000303
1.186386 -0.001823 -0.001159
1.270939 -0.013283 -0.000452
0.502394 -0.002381 -0.000245
0.048567 0.051830 -0.000826
3.871526 -0.914286 0.012175
2.116829 0.487759 0.002001
4.121013 0.480241 0.104173
2.470894 0.502456 -0.000062
-0.001086 -0.001549 0.000007
1.383878 0.442756 -0.003175
2.468081 -1.751116 -0.016195
0.644806 -0.067150 0.000340
1.572560 0.652005 0.056953
1.337515 -0.001110 0.000546
4.058145 -0.762731 -0.344492
0.001733 -0.004659 0.002122
0.016320 0.000007 -0.000666
0.679805 0.031675 -0.006844
1.285117 0.022129 -0.004250
2.512414 -0.518001 -0.001380
5.270291 0.597518 0.093265
3.790543 -0.755850 0.004429
0.688333 0.446713 0.000133
1.065472 0.317268 0.000637
2.452491 -0.013352 0.001396
4.708169 0.714293 0.041555
5.286538 0.662013 0.016323
1.375737 0.049656 -0.000214
2.519522 -0.474542 -0.002325
1.815866 0.038488 -0.000132
2.049154 0.381708 -0.001303
3.265699 1.082276 -0.035232
0.527658 -0.052432 -0.000026
1.232019 0.013107 -0.000071
0.235463 0.001502 0.000532
1.913329 -0.047283 -0.000112
1.828607 0.431039 0.000710
1.729131 0.305459 -0.001846
0.624102 0.181906 -0.000536
2.495816 0.321488 -0.002588
-0.002778 -0.000007 0.001912
0.006259 0.001017 0.000686
4.070355 -0.478427 0.000614
2.082584 0.546952 -0.000805
5.068028 0.739679 0.098900
0.125710 0.020201 0.002253
4.629392 1.026777 0.000299
4.672356 0.220515 0.340548
0.001576 -0.000367 0.001019
1.388767 -0.733137 0.000021
2.361322 0.097219 0.002040
1.372466 -0.018290 -0.000011
2.501311 -0.239310 0.000555
0.000292 0.000797 -0.001037
1.668153 -0.192925 -0.001813
0.007089 0.002079 -0.001101
0.405902 -5.032801 -0.053898
0.588553 -0.004744 0.000703
0.453246 0.519086 0.000203
2.025379 0.213261 -0.000382
5.187976 0.534039 0.131804
0.380563 0.003815 -0.002194
0.188958 -0.146134 -0.000377
0.063052 -0.112684 0.126129
0.146901 0.136429 0.012695
4.291318 -0.242402 0.006339
2.597277 0.602402 -0.002235
0.191200 -0.034503 -0.000246
0.714844 0.009360 0.003888
2.116321 -0.410498 0.002860
3.315421 0.229466 0.303735
2.601112 0.177411 -0.001275
1.798462 0.249277 -0.005181
0.944110 0.134394 0.000469
0.027354 -0.000034 0.000323
1.247330 0.389848 0.000354
0.082717 -0.000195 -0.001758
0.065623 -0.000208 0.001829
3.385225 -0.299665 0.003707
1.014989 0.574922 -0.014257
2.631893 0.018115 -0.000500
3.031390 -0.650702 0.168210
0.802135 0.280421 0.000099
0.412153 0.004961 -0.020113
3.214435 0.437108 -0.006909
2.678601 0.295065 -0.003671
0.078912 -0.035162 -0.038296
4.181105 1.097271 0.005459
0.159406 0.155358 0.000851
3.143853 0.750221 0.009430
3.065246 -0.673178 0.198509
2.066681 0.172549 -0.000987
2.294566 0.602019 -0.002025
2.148483 0.268790 -0.000859
0.315931 -0.000649 0.003055
0.570327 -0.092878 -0.000372
0.589150 0.018055 -0.000827
0.008282 0.000000 0.000061
0.529925 0.152148 0.000608
1.181522 -0.203790 -0.001171
1.891252 -0.738499 0.000157
2.042064 1.178720 0.000666
0.759067 -0.003343 0.000273
1.997947 -0.376038 0.004422
0.000493 0.001622 -0.002461
0.186608 -0.000203 0.002494
0.182299 -1.507671 -0.016843
0.677307 0.196320 0.002091
2.659269 0.667639 0.002823
4.195891 -0.823559 0.007726
0.864307 -0.326982 -0.012619
1.913924 0.146917 0.000927
1.628685 0.034332 -0.000096
-0.002098 0.000039 0.000112
2.159030 0.055034 -0.001453
0.764609 0.014168 0.005566
3.998002 -0.839101 0.052347
1.005188 0.012317 -0.005322
0.645747 0.694903 0.005461
1.633861 0.064549 -0.000389
1.540483 0.204809 -0.000225
0.000977 -0.000234 0.010156
2.729138 -0.681422 0.000012
2.556817 -0.534141 0.000131
0.743193 -1.368284 0.049329
0.009754 -0.000001 -0.000822
0.067564 0.010835 -0.000762
3.172477 -2.019762 -0.002569
3.276549 0.166327 -0.001463
0.300333 0.048190 -0.000443
0.291145 0.007151 0.002919
0.485411 -0.368799 0.000240
5.273003 0.663612 0.018242
5.040750 0.742126 0.111195
1.101857 0.039684 0.003501
3.661373 -0.205757 0.009402
2.626988 0.607328 -0.000086
3.570209 -0.858505 0.231158
4.284149 -0.428213 0.000046
0.061107 -0.030678 0.000021
0.063467 0.010454 -0.000021
0.647051 0.009535 -0.181547
5.049348 0.741882 0.100253
0.484990 0.626545 0.000501
0.905397 0.397957 0.000417
3.395705 0.225840 0.335863
0.082294 0.000097 -0.002844
0.100547 0.000261 -0.000105
2.871706 -0.205780 0.010634
1.740580 -0.312204 -0.000925
3.855563 -0.824072 0.010436
2.784523 0.644866 0.000707