<VTKFile type='UnstructuredGrid' version='1.0' byte_order='LittleEndian' header_type='UInt64'>
<UnstructuredGrid>
<Piece NumberOfCells='500' NumberOfPoints='500'>
<Points>
<DataArray NumberOfComponents='3' type='Float32' Name='Position' format='ascii'>
544.610475 189.449617 -4.695368
1029.059357 188.209033 -16.808274
-199.707176 362.019135 -6.074011
599.615465 262.162031 -6.435389
1029.278797 232.304881 -20.074967
-165.788706 115.732860 -2.190091
1029.253611 152.748402 -21.930599
841.775743 238.107241 -5.691970
539.701754 194.081704 -4.391816
-61.258283 286.720204 -5.134831
1029.136333 154.676584 -29.201451
66.453699 164.580712 -29.542189
-104.273729 224.319165 -6.141843
567.241377 112.225196 -4.331124
591.885832 216.774226 -4.403340
1029.359902 252.147987 -15.006536
892.691272 178.600946 -6.557505
1029.087137 262.783777 -11.868301
-130.050620 321.093206 -6.861377
1029.193912 138.980634 -19.474711
856.360507 158.069208 -13.132112
354.426580 20.838887 -2.427243
1029.076102 228.539705 -26.569211
460.844085 396.367043 -3.871471
1029.103216 249.678682 -17.080837
1028.990499 208.533237 -16.447437
1029.196326 188.604010 -17.100767
1029.136178 186.426719 -8.694585
75.996178 266.830058 -37.579813
795.999447 326.779779 -7.621333
614.329835 215.378457 -12.306285
429.365482 58.622403 -0.383020
1029.231420 262.000992 -8.732897
1029.083701 205.611464 -10.271489
422.306524 386.274159 -3.543799
834.640021 188.913842 -7.865457
1029.074164 155.183680 -27.112406
1029.321351 153.281068 -16.377951
487.189892 123.840475 -32.108916
1028.982668 142.206514 -26.628187
869.476144 95.129008 -6.173180
588.610729 119.338090 -2.798597
271.168986 186.956536 -37.044356
1029.147816 142.387907 -29.713177
729.758086 213.983510 -17.645012
-270.516256 218.209962 -37.643427
42.804015 168.484860 -35.082749
870.153007 213.731925 -8.970485
1029.339088 256.934836 -22.392138
650.968916 189.003187 -6.900160
1029.096555 251.048780 -9.627166
700.812059 249.802963 -5.687136
1029.044092 190.888146 -17.070591
214.328701 213.461528 -37.261854
-491.851644 186.627591 -2.017959
1029.140656 185.673421 -7.749712
482.677858 287.158916 -4.473199
-233.829431 181.826240 -31.247999
1029.281029 251.617953 -16.541149
633.375067 10.422683 -11.695939
229.842167 178.539840 -34.059494
1029.144067 251.298274 -9.433218
622.520713 386.660396 -8.336678
835.538075 185.462679 -10.596517
1029.099325 207.296483 -29.207397
55.469624 249.324463 -37.415491
511.410847 115.576159 -36.523148
1029.003818 260.121252 -19.353480
1029.219105 141.565174 -7.227381
1029.030335 140.847806 -10.327024
1029.210581 151.177371 -10.058554
-244.974806 181.737064 -34.782693
422.743582 386.163063 -3.664093
1029.370072 249.889205 -17.917543
519.833573 205.621760 -3.910904
569.517649 206.417866 -30.611336
844.971893 214.549904 -29.021177
1029.088630 226.583231 -26.791639
642.931923 191.607143 -8.017759
623.861952 181.847275 -13.366449
630.000175 61.850656 -6.150501
1029.075219 199.084609 -13.594524
1029.306689 250.607125 -21.757990
1029.275264 140.263570 -17.033113
1029.110714 228.986199 -22.802082
568.379501 114.389606 -4.138858
1029.118126 264.933374 -10.231840
1029.150350 191.275146 -16.086105
1029.304192 140.303527 -20.675616
1029.296586 152.742705 -21.728450
307.021876 222.971256 -35.135385
1029.317875 251.504023 -16.457303
1029.142010 196.584875 -14.344229
1029.292726 155.217574 -29.018318
1029.213633 188.409014 -16.858498
356.412263 241.043338 -2.377181
268.082526 205.539131 -2.523391
740.779963 249.605258 -6.174204
1029.337316 249.376128 -23.538960
1029.006290 140.497051 -6.606818
1029.101994 154.322595 -29.456101
9.964180 333.254474 -11.889146
1029.023898 231.951962 -20.916878
-432.565425 176.896283 -26.656573
-364.102439 249.527577 -20.088225
1029.244989 230.300666 -9.687840
1015.891911 188.258728 -20.535991
1029.318341 165.992030 -17.959244
-288.635705 261.245633 -19.883937
1028.977543 140.299234 -17.001177
1029.189046 140.141349 -19.420439
-501.717460 192.433711 -9.565054
276.563196 311.541916 -3.313697
1029.088515 191.145182 -20.070877
1029.119364 214.611647 -7.296110
1029.162892 231.219450 -28.952026
365.282061 73.426193 -19.824933
1029.069190 250.884586 -9.429735
-183.394034 369.385686 -5.608420
1029.161448 191.361488 -22.229912
38.042482 135.469695 -35.832707
838.236911 171.399907 -4.860602
1029.203531 259.133438 -14.979347
1029.386622 140.349597 -17.517165
764.221029 213.734434 -8.806772
122.308380 222.314333 -33.763563
377.639320 41.467018 -2.348081
621.940306 213.614042 -7.158881
1029.257480 229.715106 -21.899225
1029.221177 141.549552 -28.168380
77.480948 193.164512 -4.773452
-212.131871 214.242840 -5.425586
1029.184340 250.622315 -9.354484
1029.115912 138.104862 -11.754595
1029.020587 188.147850 -23.823336
1029.259073 166.069571 -28.080659
1029.121508 190.466885 -8.136797
990.249849 217.593737 -17.856574
422.237684 386.356569 -3.913509
-213.598456 212.846370 -3.965185
1028.976683 198.275371 -20.143932
1029.216848 231.067388 -27.441933
561.676252 150.193642 -36.508668
1029.134359 189.002731 -8.993922
1028.982673 228.031097 -11.093356
707.307161 347.322357 -6.520118
571.061799 8.174556 -20.125910
1029.064718 230.128527 -9.890916
1029.261154 171.158954 -29.184869
381.472231 52.266270 -10.001146
1029.152980 136.636137 -10.985803
807.888394 310.310384 -6.189851
1029.072949 189.720784 -13.672791
1029.126679 229.823613 -11.368067
1029.116635 266.379400 -22.171789
302.847407 357.471780 -13.582326
1029.194718 140.926378 -10.790143
-122.517132 179.978005 -31.647030
315.410609 127.107362 -2.248456
336.798465 228.639934 -5.417601
758.795608 219.877603 -12.395354
255.198272 323.965857 -13.335679
1029.165082 249.277036 -18.436584
1029.236544 229.448986 -17.039859
567.298358 95.891548 -1.852802
990.441910 214.807270 -13.847787
1029.162656 250.509853 -9.214404
313.561158 169.697599 -26.645959
516.120014 3.925892 -13.233296
591.387348 10.392641 -12.621371
-75.316756 387.687613 -18.858245
1028.993105 141.600352 -27.791848
1029.312762 229.305865 -15.668280
675.647717 225.033034 -4.433334
1029.207264 189.143456 -11.935037
852.036923 181.509222 -12.291973
-521.940420 274.722605 -37.165749
1029.232534 189.628657 -19.390733
807.927294 188.595026 -9.503556
1029.259166 229.986926 -17.220021
1029.103068 198.247599 -27.320136
1028.989402 252.799752 -25.582654
1029.160703 187.417509 -7.500706
1029.086343 261.955222 -10.171866
90.146363 179.487805 -26.178242
1029.196213 265.861447 -23.563606
1029.060599 250.741090 -23.158830
801.183393 324.175161 -11.215978
-236.570108 175.675210 -19.977734
-183.140237 308.062158 -3.552177
1029.184939 230.710144 -21.207296
1029.139103 188.001014 -24.091368
1029.296602 165.116357 -11.684768
717.341639 213.543192 -28.557307
274.750103 293.180598 -2.712835
1029.246652 152.097065 -21.274371
1029.238727 166.185289 -18.220476
613.896812 6.403226 -12.436189
1029.317852 166.310171 -11.196974
1029.074538 141.753036 -28.112455
1028.978325 226.681346 -19.098767
1029.070636 229.001683 -26.946571
270.684426 287.408668 -34.903160
1029.076318 154.088305 -26.648681
735.596706 40.712478 -7.534462
1029.134247 165.425647 -17.916420
469.355006 38.236488 -4.078005
1028.993193 251.027087 -9.360745
1029.191202 138.906774 -12.100933
-173.407577 179.696308 -2.685022
790.843373 212.671420 -15.948524
1028.987540 207.207378 -15.083185
1029.256612 249.121303 -18.632310
1029.083419 261.565138 -18.628778
1029.186294 141.644426 -26.875536
1029.125480 163.915666 -20.865933
1029.067550 187.903334 -11.437351
712.433409 213.637052 -28.256437
1028.977323 191.701105 -10.560304
-0.763218 64.384609 -34.606268
1029.130325 227.908705 -11.363294
598.318436 163.250160 -23.751728
46.068473 180.334476 -34.108474
1028.994581 191.539402 -20.807746
1029.089074 228.582486 -11.134421
1029.032689 139.337093 -11.491075
776.948178 180.924627 -26.375344
370.818145 59.570631 -25.855490
574.875254 8.096461 -20.170690
1029.118109 188.779216 -7.828990
1029.058995 154.448558 -27.720059
431.909000 254.555876 0.000849
466.948414 231.051777 -35.206939
1029.130825 162.909080 -15.085360
1029.287445 139.578995 -9.591735
294.344057 368.350295 -6.801385
1029.138655 191.579951 -20.417899
627.679875 220.592756 -25.727946
657.851776 180.638180 -19.836128
1029.215009 263.230013 -9.648705
356.839289 22.992940 -30.929117
875.866593 188.602783 -7.297338
1029.114565 185.116480 -26.917102
1029.027159 188.449629 -8.741109
1029.088616 227.990706 -18.525192
789.425317 172.641451 -23.853174
669.663769 190.994386 -29.970654
1028.976192 263.358560 -7.415076
883.573731 98.928682 -6.589188
0.046583 157.578263 -34.205886
1029.056723 204.324582 -9.094241
1028.993735 205.652109 -16.980837
1029.000713 266.680231 -14.841078
1029.019230 264.554280 -17.341043
1029.020443 260.195748 -17.082613
505.541523 125.818495 -5.964855
1022.612613 188.626125 -23.865324
-89.493593 389.842343 -30.658799
-0.001696 280.458738 -36.853215
604.652842 184.217235 -6.015468
316.788767 181.636417 -18.143401
529.686172 207.641637 -3.884573
1028.992364 140.724015 -18.226469
957.193817 190.435562 -14.548112
1029.288175 250.532170 -11.240318
1028.982169 140.578835 -8.523235
41.056996 213.965733 -36.875471
-499.032647 188.853097 -25.012314
1028.991480 184.793799 -26.995024
-125.637182 284.405214 -4.234404
1029.263509 251.378450 -21.648380
-405.792137 126.017271 -35.902072
1029.055936 181.494904 -18.997324
311.020423 157.145103 -10.765346
1029.168282 189.604127 -16.148881
-110.636766 174.447641 -26.151384
1029.060040 188.469406 -26.483053
1029.156936 166.796368 -19.504463
1029.062033 251.332961 -17.754174
799.467617 219.527559 -19.322145
1029.058731 251.612451 -21.507725
1029.209896 251.530546 -18.765869
1029.226357 141.141672 -26.962504
1029.035831 258.818714 -21.723534
1029.137454 191.840832 -7.148699
11.166799 164.975324 -33.735964
1028.992617 143.275617 -33.765066
247.148370 298.961572 -3.944962
1029.052570 231.238678 -23.593649
853.374036 237.909190 -26.280942
753.489814 314.850131 -6.156609
1029.019086 186.784368 -8.920433
1029.062089 229.606706 -11.842059
-492.948139 185.865799 -3.785702
72.443278 181.843638 -33.933533
798.676129 187.240256 -29.812836
1029.055737 139.105929 -11.640209
245.271310 178.247851 -31.275043
1029.084872 192.212440 -20.238293
-237.229299 212.392788 -5.071692
-21.244824 215.333296 -13.034600
1028.996143 151.715862 -17.273462
1028.994285 231.174448 -6.028807
411.591621 245.039275 -3.410562
574.920883 212.549094 -4.556520
1029.256785 153.702561 -22.613375
1029.274629 189.295571 -19.419725
1028.980026 266.824802 -15.162600
77.814943 191.951108 -33.452111
1029.096721 252.600993 -23.946544
1029.235200 153.879772 -27.568629
-268.384715 212.653507 -36.372561
377.853654 380.172068 -24.176227
1029.273908 151.732683 -17.452964
1029.014351 139.407205 -11.818104
-161.917663 216.088870 -4.437249
1028.984348 184.826144 -32.941579
572.027045 117.112701 -3.609806
1028.980649 249.835231 -21.175183
755.568786 187.936445 -11.262048
1029.188393 230.634547 -28.444128
1029.080799 230.197874 -9.454699
622.333414 214.656301 -30.801080
626.636913 383.158910 -7.489441
519.127285 83.992968 -28.898192
1029.008500 206.564596 -15.792315
536.102584 131.647937 -2.334588
1029.067852 141.603446 -27.818469
1029.069269 165.176413 -18.524279
1029.133526 191.427176 -10.540003
249.010955 199.100899 -3.131942
-69.151161 180.734731 -5.382331
592.827377 6.101366 -25.544715
1029.220334 140.786220 -22.054353
192.301442 192.411090 -37.757159
1029.175277 141.288491 -25.554240
436.313620 72.474092 -26.566766
867.069649 240.904670 -34.737644
617.773962 120.041359 -4.740572
1029.228811 229.056026 -21.423484
1029.263211 229.727649 -8.828450
298.084701 208.382645 -32.019983
1029.255636 140.847097 -10.347196
1029.144526 262.952322 -22.063480
241.434101 170.902570 -34.197216
1029.093018 189.431262 -22.359625
214.999385 219.351307 -2.204246
1029.246426 229.393185 -16.587050
541.290568 168.530641 -24.970560
815.233382 178.453472 -11.072300
1029.146176 187.848913 -9.040993
1029.240783 141.515258 -27.379984
-257.919912 347.959729 -5.947354
1029.025452 191.423095 -15.451683
332.042025 340.201684 -5.878964
-176.922704 219.492448 -26.104686
547.770483 5.082563 -10.124275
1029.083022 262.773429 -19.497108
1029.086616 250.371744 -7.973811
1029.037398 262.781573 -26.167907
1029.137774 227.226450 -10.712844
1029.144133 141.824809 -12.094427
1028.988883 264.995240 -7.280992
1029.072346 230.843770 -24.585391
215.176709 149.412314 -31.859473
609.876430 6.108884 -11.689291
560.090834 165.746887 -22.623275
383.684481 264.365374 -20.013039
-154.754172 111.989685 -26.057914
687.917756 128.580271 -6.084148
740.777706 170.968519 -23.411161
-105.524337 221.285630 -5.525671
1029.220458 185.847851 -11.251454
1029.284457 252.216365 -23.460776
1029.129728 164.701498 -20.667179
852.787793 177.845816 -19.516142
467.614261 286.469062 -10.822737
1028.998408 152.824558 -6.281295
1029.029557 189.622144 -9.059488
1029.097936 262.061277 -16.866182
1029.292222 139.341657 -20.537809
1029.028994 140.404660 -8.938870
619.362070 11.765797 -6.903493
1029.005844 140.255329 -9.204981
-500.817706 193.229203 -15.885583
422.364659 386.234165 -5.736371
1029.087163 227.049554 -11.271518
681.374135 187.779404 -19.191899
776.863444 343.105105 -18.120105
-50.113973 12.151951 -11.935780
1029.284670 252.620977 -25.589771
-317.954690 212.371465 -37.904515
1029.146218 191.360374 -20.366622
1029.105913 190.489401 -8.928432
1028.984297 152.167014 -15.410153
470.187993 225.064071 -34.167654
1028.977495 139.629717 -6.673073
73.165645 326.268786 -34.639267
1029.217982 189.239624 -24.197824
-164.085342 176.987712 -5.615812
734.671740 213.745590 -9.209204
-253.997634 49.958307 -26.319813
1029.331110 152.525238 -20.330589
95.486494 293.163253 -36.105573
1029.187656 251.079710 -22.841616
1029.318670 140.222168 -7.695200
489.281434 118.833394 -5.914962
1029.189180 152.203793 -9.786901
835.169801 185.503673 -10.620138
1029.020630 165.105675 -19.151886
905.572947 179.416426 -6.862522
1029.190473 154.549839 -27.821762
1029.119299 138.490448 -7.169665
-147.795354 380.628235 -12.631395
1028.992859 189.529076 -21.214293
1029.200837 141.506837 -28.207214
1029.122687 189.627835 -12.980992
1029.110689 230.414989 -7.779148
311.849657 150.448899 -10.215681
1029.067094 190.358882 -21.601804
1029.149717 228.931587 -26.989552
286.123614 155.439697 -35.696631
515.737278 344.374522 -6.584764
1029.126705 199.221430 -20.196635
1028.978204 191.616251 -5.973972
1029.154759 191.002642 -23.581673
1029.118563 166.532241 -28.691753
602.178057 228.202081 -4.467198
1029.114841 139.297521 -11.567960
411.558032 245.110662 -3.276845
1029.136270 191.163161 -23.318089
601.480864 6.892351 -10.655831
1029.105731 205.069380 -15.635904
1028.991614 151.329544 -19.248305
-501.100515 193.439968 -16.412439
321.759732 111.707193 -37.184893
1029.120078 187.702432 -9.310782
1029.163817 184.148452 -21.974278
1029.312471 248.234907 -9.873754
436.170874 50.249337 -19.578569
1029.328978 136.843542 -18.881703
824.055749 297.669733 -24.919319
1029.222021 229.310936 -11.098716
1029.172426 140.413768 -21.018412
661.810458 165.875111 -16.921866
1029.118423 167.132526 -29.081801
1029.032436 162.086172 -8.090933
1029.041121 142.217793 -6.243565
1029.236015 251.014534 -17.909152
308.089708 228.302289 -37.172902
494.031148 232.105917 -1.715738
1028.977966 139.590846 -10.513834
1029.013381 155.959542 -27.775785
532.214609 182.217125 -26.237963
309.819901 229.997016 -36.875824
1029.030631 206.195502 -29.210784
592.628999 168.052648 -6.911082
1029.122752 191.332256 -15.803695
1029.022018 152.098673 -9.721617
1028.979961 185.456998 -7.675500
11.439748 75.818471 -32.025019
1029.034602 250.235039 -24.035320
795.764648 180.315423 -12.173835
372.583433 59.776160 -12.460715
-196.536968 219.047096 -6.167379
1029.121923 139.486113 -10.572183
920.433659 109.669787 -6.134065
1029.016906 187.725508 -9.274138
594.280811 220.487902 -27.829999
1029.281845 164.317919 -10.568704
68.768521 271.175527 -37.662268
707.654030 319.895018 -6.006070
84.746828 299.112058 -35.953383
498.087435 4.589177 -8.649197
400.884835 273.474580 -5.355285
1029.080642 139.809185 -8.448109
524.292577 135.362995 -2.392134
1029.190996 251.339016 -24.093351
750.919010 213.866609 -8.262883
-123.238273 213.909354 -19.324637
134.911282 216.216251 -37.284968
1029.091622 188.026010 -8.426024
482.383634 90.274366 -1.501199
1029.233175 246.857364 -23.058501
631.871033 381.009810 -26.088253
1029.182799 226.565878 -26.855878
694.472456 167.637956 -24.397642
1029.001557 265.025473 -24.043119
1029.035127 184.774956 -22.472807
1029.077783 191.459570 -6.368736
1029.147602 265.728428 -24.808093
1028.979811 266.614511 -21.884949
666.242466 377.249031 -23.803580
89.798849 178.280786 -26.298967
378.075462 7.721897 -0.963226
1029.072314 141.391280 -11.738849
628.727316 68.110176 -5.253386
1029.042814 142.222528 -5.287601
704.837447 317.437010 -6.875492
907.343788 214.295903 -17.734694
</DataArray>
</Points>
<PointData>
<DataArray NumberOfComponents='1' type='Int32' Name='ParticleType' format='ascii'>
1
1
1
1
1
1
1
1
1
1
1
1
1
1
1
1
1
1
1
1
1
1
1
1
1
1
1
1
1
1
1
1
1
1
1
1
1
1
1
1
1
1
1
1
1
1
1
1
1
1
1
1
1
1
1
1
1
1
1
1
1
1
1
1
1
1
1
1
1
1
1
1
1
1
1
1
1
1
1
1
1
1
1
1
1
1
1
1
1
1
1
1
1
1
1
1
1
1
1
1
1
1
1
1
1
1
1
1
1
1
1
1
1
1
1
1
1
1
1
1
1
1
1
1
1
1
1
1
1
1
1
1
1
1
1
1
1
1
1
1
1
1
1
1
1
1
1
1
1
1
1
1
1
1
1
1
1
1
1
1
1
1
1
1
1
1
1
1
1
1
1
1
1
1
1
1
1
1
1
1
1
1
1
1
1
1
1
1
1
1
1
1
1
1
1
1
1
1
1
1
1
1
1
1
1
1
1
1
1
1
1
1
1
1
1
1
1
1
1
1
1
1
1
1
1
1
1
1
1
1
1
1
1
1
1
1
1
1
1
1
1
1
1
1
1
1
1
1
1
1
1
1
1
1
1
1
1
1
1
1
1
1
1
1
1
1
1
1
1
1
1
1
1
1
1
1
1
1
1
1
1
1
1
1
1
1
1
1
1
1
1
1
1
1
1
1
1
1
1
1
1
1
1
1
1
1
1
1
1
1
1
1
1
1
1
1
1
1
1
1
1
1
1
1
1
1
1
1
1
1
1
1
1
1
1
1
1
1
1
1
1
1
1
1
1
1
1
1
1
1
1
1
1
1
1
1
1
1
1
1
1
1
1
1
1
1
1
1
1
1
1
1
1
1
1
1
1
1
1
1
1
1
1
1
1
1
1
1
1
1
1
1
1
1
1
1
1
1
1
1
1
1
1
1
1
1
1
1
1
1
1
1
1
1
1
1
1
1
1
1
1
1
1
1
1
1
1
1
1
1
1
1
1
1
1
1
1
1
1
1
1
1
1
1
1
1
1
1
1
1
1
1
1
1
1
1
1
1
1
1
1
1
1
1
1
1
1
1
1
1
1
1
1
1
1
1
1
1
1
1
1
1
1
1
1
1
1
1
1
1
1
1
1
1
1
1
1
1
1
1
</DataArray>
<DataArray NumberOfComponents='1' type='Int32' Name='ParticleID' format='ascii'>
0
1
2
3
4
5
6
7
8
9
10
11
12
13
14
15
16
17
18
19
20
21
22
23
24
25
26
27
28
29
30
31
32
33
34
35
36
37
38
39
40
41
42
43
44
45
46
47
48
49
50
51
52
53
54
55
56
57
58
59
60
61
62
63
64
65
66
67
68
69
70
71
72
73
74
75
76
77
78
79
80
81
82
83
84
85
86
87
88
89
90
91
92
93
94
95
96
97
98
99
100
101
102
103
104
105
106
107
108
109
110
111
112
113
114
115
116
117
118
119
120
121
122
123
124
125
126
127
128
129
130
131
132
133
134
135
136
137
138
139
140
141
142
143
144
145
146
147
148
149
150
151
152
153
154
155
156
157
158
159
160
161
162
163
164
165
166
167
168
169
170
171
172
173
174
175
176
177
178
179
180
181
182
183
184
185
186
187
188
189
190
191
192
193
194
195
196
197
198
199
200
201
202
203
204
205
206
207
208
209
210
211
212
213
214
215
216
217
218
219
220
221
222
223
224
225
226
227
228
229
230
231
232
233
234
235
236
237
238
239
240
241
242
243
244
245
246
247
248
249
250
251
252
253
254
255
256
257
258
259
260
261
262
263
264
265
266
267
268
269
270
271
272
273
274
275
276
277
278
279
280
281
282
283
284
285
286
287
288
289
290
291
292
293
294
295
296
297
298
299
300
301
302
303
304
305
306
307
308
309
310
311
312
313
314
315
316
317
318
319
320
321
322
323
324
325
326
327
328
329
330
331
332
333
334
335
336
337
338
339
340
341
342
343
344
345
346
347
348
349
350
351
352
353
354
355
356
357
358
359
360
361
362
363
364
365
366
367
368
369
370
371
372
373
374
375
376
377
378
379
380
381
382
383
384
385
386
387
388
389
390
391
392
393
394
395
396
397
398
399
400
401
402
403
404
405
406
407
408
409
410
411
412
413
414
415
416
417
418
419
420
421
422
423
424
425
426
427
428
429
430
431
432
433
434
435
436
437
438
439
440
441
442
443
444
445
446
447
448
449
450
451
452
453
454
455
456
457
458
459
460
461
462
463
464
465
466
467
468
469
470
471
472
473
474
475
476
477
478
479
480
481
482
483
484
485
486
487
488
489
490
491
492
493
494
495
496
497
498
499
</DataArray>
<DataArray NumberOfComponents='1' type='Int8' Name='IsActive' format='ascii'>
1
0
1
1
0
1
0
1
1
1
0
1
1
1
1
0
1
0
1
0
1
1
0
1
0
0
0
0
1
1
1
1
0
0
0
1
0
0
1
0
1
1
1
0
1
1
1
1
0
1
0
1
0
1
1
0
1
1
0
1
1
0
1
1
0
1
1
0
0
0
0
1
0
0
1
1
1
0
1
1
1
0
0
0
0
1
0
0
0
0
1
0
0
0
0
1
1
1
0
0
0
1
0
1
1
0
1
0
1
0
0
1
1
0
0
0
1
0
1
0
1
1
0
0
1
1
0
1
0
0
1
1
0
0
0
0
0
1
0
1
0
0
1
0
0
1
1
0
0
0
0
1
0
0
0
1
0
1
1
1
1
1
0
0
1
1
0
1
1
1
1
0
0
1
0
1
1
0
1
0
0
0
0
0
1
0
0
1
1
1
0
0
0
1
1
0
0
1
0
0
0
0
1
0
1
0
1
0
0
1
0
0
0
0
0
0
0
1
0
1
0
1
1
0
0
0
1
1
1
0
0
0
1
0
0
1
0
1
1
0
1
1
0
0
0
1
1
0
1
1
0
0
0
0
0
1
1
1
1
1
1
1
0
1
0
0
1
1
0
1
0
1
0
1
0
1
0
0
0
1
0
0
0
0
0
1
0
1
0
1
1
0
0
1
1
1
0
1
0
1
1
0
0
0
1
0
0
0
1
0
0
1
1
0
0
1
0
1
0
1
0
0
1
1
1
0
1
0
0
0
1
1
1
0
1
0
1
1
1
0
0
1
0
0
1
0
1
0
1
1
0
0
1
0
1
1
1
0
0
0
0
0
0
0
1
1
1
1
1
1
1
1
0
0
0
1
1
0
0
0
0
0
1
0
1
0
0
1
1
1
0
1
0
0
0
1
0
1
0
1
1
1
0
1
0
0
1
0
1
0
1
0
0
1
0
0
0
0
1
0
0
1
1
0
0
0
0
1
0
0
0
1
0
0
1
1
0
0
0
1
0
1
0
0
1
0
0
0
0
1
1
0
0
1
1
0
1
0
0
0
1
0
1
0
1
0
1
0
1
0
1
1
1
1
0
0
1
0
1
1
1
0
1
0
1
0
1
0
0
0
0
0
1
1
0
0
1
0
1
1
</DataArray>
<DataArray NumberOfComponents='1' type='Int32' Name='ParticleTetID' format='ascii'>
58088
-61515
7814
73208
-58962
6858
-66558
62317
68420
8299
-66561
98966
21997
77167
62750
-64917
66565
-68099
4665
-66554
69916
46998
-58961
81758
-64916
-70586
-61515
-61512
30003
77007
61204
87733
-68099
-72204
-112396
67035
-66561
-66555
54841
-66557
71767
56666
43847
-66560
62935
9502
37222
57299
-64920
69519
-64914
59311
-61515
35422
19262
-61512
56036
7303
-64917
63491
26133
-64914
57515
67037
-72213
28205
59219
-64917
-66552
-66551
-66552
9287
-112396
-64916
64892
75002
69097
-58965
72689
61224
63847
-72207
-64920
-66554
-58961
75764
-68099
-61515
-66557
-66558
25973
-64917
-72207
-66561
-61515
51282
32438
74377
-64919
-66548
-66561
47740
-58962
3808
5067
-58955
73487
-59786
6361
-66554
-66554
2273
29719
-61518
-70584
-58965
85776
-64914
9739
-61518
33443
61867
-64917
-66554
62969
40066
-146594
61205
-58962
-66560
44118
7400
-64914
-66588
-61518
-59791
-61512
73249
-112396
7400
-72210
-58965
69171
-61512
-58955
61669
61389
-58955
-59791
-156163
-66588
70255
-61515
-58955
-68105
34566
-66551
5396
43650
42842
62968
30678
-64916
-58958
69660
70512
-64914
45154
69394
61367
404
-66560
-58958
62912
-61511
68837
10690
-61514
63059
-58958
-72213
-64919
-61512
-68099
98736
-68105
-64919
77008
7297
6642
-58962
-61518
-59783
63032
29738
-66558
-59786
65831
-59783
-66560
-58958
-58965
32579
-66557
63597
-59786
55099
-64914
-66551
7382
-63044
-72207
-64916
-68102
-66561
-59788
-61511
63032
-61512
10529
-58955
64955
33603
-61518
-58955
-66551
63082
85524
61389
-61512
-66561
-136563
53135
-59785
-66551
33681
-61518
68986
63151
-68099
47011
61113
-61521
-61512
-58958
76727
65299
-68100
72001
36754
-72204
-72207
-68103
-68102
-64917
70489
61515
11750
5614
65900
43694
64892
-66554
67346
-64913
-66551
30705
19217
-61521
4627
-64920
2213
-61514
45167
-61515
1810
-61517
-59786
-64916
63044
-64920
-64916
-66561
-64920
-61512
36753
-66564
33932
-58961
63910
71605
-61512
-58955
19262
99737
63176
-66551
27338
-61518
7471
19768
-66555
-58952
-126563
77473
-66558
-61514
-68103
44133
-64919
-66561
9502
26434
-66555
-66551
7507
-61520
75764
-64920
63203
-58965
-58955
61214
57515
56857
-72207
78516
-66560
-59786
-61512
25273
20287
61373
-66557
27935
-66557
86687
57491
72668
-58962
-58955
27481
-66551
-68105
25001
-61518
91617
-58958
71830
63057
-61512
-66561
7850
-61515
33319
7534
61961
-68102
-64914
-68105
-58955
-66551
-68100
-58961
40639
65830
59103
82198
6832
68491
71416
21997
-61511
-64920
-59788
68840
53717
-66548
-61512
-68102
-66557
-66551
66891
-66551
2276
-112399
-58955
63133
63260
5531
-64919
7468
-61518
-61512
-66555
54249
-66552
33783
-61518
9379
62933
7787
-66558
37385
-64920
-66551
52814
-66552
67037
-59786
67467
-66561
-66588
7871
-61518
-66560
-61511
-58956
43709
-61518
-58965
38320
66331
-72210
-61509
-61518
-59791
57062
-66551
-126559
-61518
70852
-72207
-66554
2276
49660
-61512
-61518
-64913
86856
-66591
62003
-58955
-66557
57786
-59791
-59782
-66548
-64916
32651
52488
-66551
-66561
59158
32651
-72213
64947
-61515
-66552
-61512
42583
-64919
63167
-84632
7490
-66551
78571
-61512
76369
-59783
30004
64244
37097
53068
-127033
-66551
74054
-64919
62969
5407
91296
-61512
53156
-64919
69995
-58965
59266
-68105
-61518
-61508
-68105
-68106
63299
98736
-153844
-66551
60500
-66548
64245
72511
</DataArray>
<DataArray NumberOfComponents='3' type='Float32' Name='vels' format='ascii'>
0.121338 0.001209 0.000593
2.941750 0.743093 0.251364
0.043908 0.012817 -0.000489
0.021160 -0.000167 -0.000468
4.011166 -0.808442 0.007605
0.296311 -0.045921 0.000023
5.291425 0.658114 0.015048
1.575506 -0.149909 0.000305
0.460204 0.014167 -0.000329
0.428315 0.018871 -0.002890
4.043204 0.516567 -0.062035
1.101330 1.508843 -0.011746
0.715497 -0.007650 -0.001608
0.604427 0.517190 0.003885
0.014440 0.000034 -0.000193
4.781214 -0.633258 0.223552
2.910887 0.179100 0.007099
1.841632 -0.359408 0.096556
0.950369 0.135008 -0.001146
4.618366 0.202199 0.374453
1.391032 0.212028 -0.009338
1.930297 -0.454599 0.113664
3.564954 -0.948543 -0.100939
0.000290 0.000984 0.000976
5.081494 -0.728568 0.061442
2.709453 -0.571234 0.037044
2.890267 0.733475 0.271122
2.291721 0.555347 0.251364
1.199131 -0.832028 -0.000868
2.107375 -0.520501 0.001043
0.308184 0.000158 0.001266
0.246654 -0.073272 -0.000891
3.213363 -0.761119 -0.003224
1.656845 -0.012767 0.231690
30.832558 8.406263 0.242404
0.864567 0.007940 0.000192
3.361597 0.485264 0.057820
5.072144 0.616756 0.203979
0.000074 0.000220 -0.000885
4.822554 0.159554 -0.071552
0.998387 0.253596 -0.000856
0.904846 0.111292 -0.001704
3.177319 -0.753592 0.001979
3.522981 0.454183 -0.022000
1.241189 -0.013849 -0.000063
0.018033 -0.000251 -0.000006
1.165242 1.119903 0.003127
0.205786 -0.000264 0.000753
5.038774 -0.652624 0.013047
0.365409 0.000860 0.001739
2.926561 -0.297746 0.581025
1.350848 -0.119736 0.001333
2.831417 0.656188 0.157502
0.292136 0.143522 -0.000275
0.001922 -0.000321 -0.000298
2.459462 0.587685 0.168515
0.389748 0.294322 -0.007317
0.808012 -0.006877 0.001809
4.325011 -0.485807 0.474073
0.496979 0.138606 -0.002504
2.188677 0.343047 -0.001940
3.009809 -0.323029 0.523657
0.546309 -0.066069 0.000282
0.230823 0.000606 0.000929
1.625300 0.032475 -0.102624
0.392682 -0.107054 0.000288
0.350758 0.493457 -0.001202
4.340364 -0.231916 0.365021
3.114425 0.129711 0.500337
4.121013 0.480241 0.104173
3.314428 0.340714 0.441299
0.357289 -0.008246 0.000640
46.675339 14.517866 -0.076229
4.966831 -0.741021 0.103249
0.102542 0.004456 0.000575
0.048726 0.121461 -0.017927
2.159358 -0.077310 -0.000979
4.058145 -0.762731 -0.344492
0.300873 0.000404 -0.000405
0.016106 -0.000039 0.000249
1.398946 0.218816 -0.000579
2.447300 0.404613 0.136695
4.955756 -0.666599 0.026369
5.270291 0.597518 0.093265
3.790543 -0.755850 0.004429
0.492213 0.250347 0.003106
3.198346 -0.576469 0.091015
2.891380 0.658313 0.072510
4.708169 0.714293 0.041555
5.286538 0.662013 0.016323
0.372706 0.072277 0.000744
4.335292 -0.493674 0.469468
2.376679 0.415278 0.303110
3.978817 0.514039 -0.035953
2.925429 0.736889 0.253986
0.630719 0.225055 0.016294
2.045313 0.693779 -0.000545
1.424034 -0.153138 0.000059
4.657912 -0.665986 -0.017331
0.402313 0.016930 0.069481
4.122142 0.520750 -0.092827
1.072757 -0.773193 0.006044
4.068510 -0.838672 0.002245
0.004043 -0.000031 -0.000869
0.090229 0.014641 0.001199
3.529941 -0.711878 0.030954
2.648757 1.040574 0.001506
5.068028 0.739679 0.098900
0.089343 0.014322 0.000008
5.282705 0.607003 0.090999
4.672356 0.220515 0.340548
0.000998 0.001613 0.000877
0.571028 0.430603 -0.000225
2.719856 0.689432 0.014472
1.875758 -0.371275 0.170103
3.526443 -0.813141 -0.314200
0.003078 -0.001309 -0.006563
2.977139 -0.317598 0.549789
0.275547 0.079929 -0.002465
2.856396 0.655576 -0.021302
0.107589 0.156893 0.000357
1.089437 0.097740 -0.000766
5.097804 -0.739710 -0.004191
5.187976 0.534039 0.131804
1.668862 -0.034385 -0.000670
0.013772 0.006734 0.000013
0.063052 -0.112684 0.126129
0.886846 -0.002639 0.001958
3.941319 -0.939718 0.019078
3.094111 0.466580 0.051646
0.006175 0.002431 -0.000003
0.286652 0.002098 -0.001352
2.947628 -0.317004 0.559127
3.315421 0.229466 0.303735
3.114699 0.812712 -0.006021
3.981705 0.784788 -0.179278
2.397503 0.576482 0.045044
2.790839 -0.377603 0.000623
46.605008 17.425592 -0.121316
0.426302 0.004032 -0.001125
2.453705 0.036037 -0.002453
3.273935 -0.703619 -0.146819
0.670439 0.208946 -0.000220
2.267504 0.537684 0.170558
3.031390 -0.650702 0.168210
1.059089 -0.278291 0.002044
0.057494 0.000044 -0.000934
3.485382 -0.705401 0.047642
4.244217 0.718171 -0.088138
0.078912 -0.035162 -0.038296
3.309975 0.272851 0.268077
1.849774 -0.384511 -0.001565
3.143853 0.750221 0.009430
3.065246 -0.673178 0.198509
4.241233 -0.744797 0.007929
0.978267 0.351953 0.000717
3.991307 0.425104 0.155119
0.179482 0.000141 -0.000173
0.498643 -1.600072 -0.006127
0.419236 0.264397 0.000310
0.522524 -0.002498 -0.000134
0.660000 0.978153 -0.000153
4.864729 -0.743999 0.144699
4.023324 -0.834694 0.046985
0.041969 0.113777 0.003859
1.058326 -0.141532 0.005545
2.983754 -0.330680 0.536378
-0.000144 -0.000982 -0.001152
0.047552 0.000143 -0.000490
0.030143 0.000163 -0.000540
0.140931 0.000158 0.000608
2.912069 0.446903 0.058844
4.195891 -0.823559 0.007726
0.019746 -0.000067 0.001517
3.421469 0.801853 0.232091
0.147416 0.000491 0.001458
0.000297 -0.000023 0.000127
3.917611 0.961390 0.066384
2.100993 0.048117 -0.002389
3.998002 -0.839101 0.052347
2.110943 0.365026 -0.216448
4.558290 -0.718325 -0.153658
2.517882 0.602668 0.087560
2.602964 -0.618944 0.038887
0.003128 -0.001000 -0.000079
3.746715 -0.624846 0.010220
4.537418 -0.639668 -0.001990
2.852657 -0.712180 0.002987
0.016784 -0.000023 -0.000739
0.302029 0.046209 0.000435
4.022468 -0.876011 0.007542
3.114020 0.835475 0.004567
4.032579 0.575637 0.282121
0.661170 -0.005154 -0.001297
0.053972 0.052027 0.000219
5.273003 0.663612 0.018242
5.040750 0.742126 0.111195
0.114912 0.000896 -0.001736
4.238118 0.605920 0.212747