<VTKFile type='UnstructuredGrid' version='1.0' byte_order='LittleEndian' header_type='UInt64'>
<UnstructuredGrid>
<Piece NumberOfCells='500' NumberOfPoints='500'>
<Points>
<DataArray NumberOfComponents='3' type='Float32' Name='Position' format='ascii'>
-492.893993 223.547852 -4.798026
-470.338336 173.857155 -21.505831
-505.835773 274.851051 -6.185889
-460.313481 250.159888 -10.819779
-441.589883 245.583453 -22.714712
-491.934379 149.304980 -2.615413
-466.965984 159.914433 -27.924915
-466.943552 253.388212 -7.683702
-489.239306 223.739494 -4.977107
-498.728137 244.002921 -5.126972
-473.472046 153.616987 -32.356807
-519.590921 123.536113 -29.970207
-509.149511 211.806662 -6.102954
-494.067235 157.764425 -3.953172
-475.931822 236.609841 -6.840854
-445.218502 274.160519 -16.179682
-463.335858 165.724044 -9.194279
-459.481560 280.138463 -14.806877
-481.880520 249.571571 -6.634768
-450.331157 126.721240 -21.347019
-445.667394 157.290161 -16.129382
-497.635007 134.681119 -4.177327
-452.296618 238.947568 -25.971560
-478.747976 285.708623 -16.001370
-445.582417 273.556784 -19.171042
-449.667479 240.555858 -20.825640
-500.899369 207.033928 -23.953052
-464.546358 169.076956 -14.494859
-489.317507 257.368835 -37.357458
-472.728871 275.072502 -6.886442
-445.456245 232.872292 -15.893665
-505.260070 167.976527 -2.583522
-472.120827 281.002099 -11.383557
-469.201425 230.077643 -11.351046
-513.571262 269.893800 -19.931657
-472.457541 222.065326 -8.906176
-463.767085 158.822348 -27.445679
-450.910847 131.075762 -20.091599
-483.256613 220.137288 -30.933675
-456.053128 126.276398 -28.193046
-477.168659 129.358220 -7.109780
-497.972473 165.045938 -3.960925
-502.234816 164.731977 -36.796959
-477.900755 121.262220 -32.591689
-447.327968 229.960596 -21.462217
-511.392298 207.326930 -37.160911
-508.093493 139.421029 -35.170365
-445.115755 238.675367 -14.307964
-449.062333 280.760138 -22.647113
-460.317133 229.249318 -9.834371
-450.079890 265.834680 -13.426959
-483.305218 231.676401 -6.259253
-458.220209 170.837040 -18.924444
-505.004345 255.782920 -37.176401
-510.145179 197.600012 -5.112721
-489.496400 173.711534 -7.823104
-489.045168 259.741723 -5.655365
-500.752470 187.084920 -32.876240
-446.679400 277.866697 -20.619434
-481.480549 121.197544 -14.275871
-488.868891 158.025350 -33.815088
-451.268309 262.826026 -13.396844
-474.168885 284.473574 -10.144473
-463.760948 224.801466 -10.597569
-469.242541 231.104918 -31.652703
-497.776491 237.659225 -37.365855
-492.336186 173.497221 -32.728589
-444.412632 276.475806 -19.451117
-462.100805 129.971494 -9.020815
-455.608234 127.227004 -15.246773
-452.394141 139.777767 -14.657139
-511.052518 195.199606 -34.298620
-472.291665 283.126095 -22.003952
-446.523569 265.069594 -25.012092
-496.085144 227.727812 -2.803316
-483.939887 221.922497 -32.789464
-459.324536 232.647147 -29.561837
-463.650631 238.225391 -28.322797
-454.990335 229.320452 -15.199677
-467.603942 222.279783 -15.788165
-474.058729 147.937270 -7.007861
-457.884676 224.731836 -16.071741
-453.403237 275.102135 -27.950395
-442.333672 131.737191 -20.731314
-439.072727 246.881474 -20.309826
-497.473222 158.129156 -3.653445
-477.237156 280.453059 -11.725017
-473.378729 172.508758 -18.504122
-462.292571 123.419691 -23.218257
-450.487739 157.523916 -27.036114
-501.718244 219.975191 -35.285219
-449.365285 274.309715 -20.438134
-450.986514 227.816310 -18.047300
-473.227269 153.515178 -31.993762
-478.062416 175.178303 -22.769745
-503.094753 221.050424 -2.497532
-508.385587 212.100549 -2.422988
-454.611247 250.237078 -10.574406
-471.347036 260.484535 -30.850578
-466.220911 136.396793 -9.483849
-467.388370 154.609649 -31.617825
-517.203960 273.912879 -12.426099
-440.311711 256.478776 -23.428912
-488.611556 178.085592 -26.809167
-442.974009 253.549351 -18.472258
-454.672602 237.182118 -12.720902
-479.093591 179.385279 -24.727092
-445.217829 154.184856 -20.042583
-446.271340 252.711816 -19.307385
-460.585652 118.497603 -21.207936
-447.595009 130.568193 -24.456718
-503.347794 193.600889 -10.904723
-499.339292 266.924156 -3.357786
-486.225782 180.121771 -23.715510
-475.739155 237.189001 -7.030454
-471.819553 239.195881 -31.926569
-469.200578 221.770600 -24.406146
-457.750354 269.001222 -13.134051
-515.808985 274.731228 -6.010376
-500.833941 206.698849 -27.487876
-502.639664 125.979305 -36.376329
-495.148013 167.485854 -6.665113
-447.627216 280.792513 -15.664844
-452.060089 120.753251 -20.063551
-466.703957 232.234137 -10.428782
-490.894792 265.696622 -33.913131
-447.599304 145.844174 -18.199966
-471.443774 229.171205 -10.019078
-445.923746 248.862467 -23.924720
-468.125369 134.083721 -32.283188
-482.306117 143.725188 -4.916009
-508.427758 202.586517 -5.528188
-444.655165 269.017961 -13.883298
-449.299972 120.428516 -16.144829
-484.832318 178.269671 -27.533328
-469.672537 163.334018 -30.790413
-497.552465 179.878496 -8.832809
-463.157994 228.329675 -19.975893
-473.074240 285.449075 -23.608603
-510.061589 199.668626 -4.342351
-464.645975 219.689068 -20.275214
-475.622957 238.054450 -30.802495
-471.324523 170.215567 -32.291581
-453.251401 166.038390 -17.440273
-444.618611 243.079234 -14.820118
-479.644687 280.604939 -11.106692
-474.062624 115.017679 -23.485996
-459.782518 243.285763 -11.762701
-474.252016 163.225639 -31.418239
-474.812157 166.516818 -32.628715
-466.970882 132.249089 -13.063460
-469.085538 265.873634 -8.311460
-450.677392 160.304774 -18.731997
-444.630102 247.319922 -17.353754
-460.951524 283.273048 -25.270968
-513.979557 269.123396 -13.329999
-477.831311 118.397378 -14.678694
-486.918975 181.458603 -32.913787
-500.789784 215.654919 -2.658184
-497.683947 216.828893 -5.220061
-462.531288 231.118069 -11.579620
-501.328090 272.265362 -13.290128
-449.926079 261.500202 -25.057185
-443.115160 253.044146 -21.368835
-496.895341 141.618348 -6.494233
-465.746763 231.372665 -11.858385
-457.071502 259.395614 -11.495933
-477.335551 219.481908 -24.364886
-481.818987 121.386653 -13.976882
-482.297250 118.634319 -13.676131
-518.387939 273.996036 -19.755975
-462.008504 139.006873 -28.989679
-446.338049 240.778745 -18.936711
-486.358491 233.991299 -6.506301
-488.087550 179.406089 -15.050121
-465.265361 226.251909 -11.918336
-520.779509 273.751517 -37.150562
-482.933305 218.318938 -20.403502
-460.283515 234.302258 -10.978499
-445.407161 240.232169 -22.006830
-466.449645 225.736801 -24.289236
-463.500320 264.857199 -32.016497
-479.977671 168.374644 -7.802056
-455.753195 280.682729 -13.469410
-472.277682 116.239842 -26.735610
-457.115990 274.859748 -25.604426
-453.011021 276.168024 -27.450973
-514.486094 275.353405 -17.890222
-483.422832 176.762736 -19.808493
-497.327924 245.938227 -4.047647
-444.614986 256.435659 -24.818111
-474.614785 171.096138 -29.565830
-451.012763 154.333900 -15.897098
-463.329121 233.020688 -27.473909
-499.218636 261.761072 -2.694666
-460.145155 156.236507 -27.759460
-449.835741 159.010848 -20.193274
-475.590874 119.814125 -15.364717
-444.688189 148.709799 -14.120517
-469.475080 135.397905 -32.753973
-450.598233 240.437019 -23.877900
-462.119898 245.572533 -27.871558
-490.564258 265.475023 -34.838232
-465.715736 155.964039 -30.483798
-477.719570 118.976569 -10.423343
-442.290339 158.492468 -20.947303
-495.464620 143.977642 -4.888668
-452.274764 258.357337 -12.901552
-445.684443 126.911342 -17.177868
-514.236801 195.986256 -3.295899
-457.372872 229.593433 -18.991617
-461.731565 229.790997 -20.002441
-441.476818 265.804657 -19.584118
-447.323632 277.745471 -20.274289
-469.835041 128.878326 -32.024815
-449.916825 156.034401 -23.583068
-479.242060 176.993871 -14.945396
-463.977773 234.311613 -29.525815
-463.199550 165.455629 -12.605875
-503.662739 123.296855 -34.474726
-445.510730 245.754964 -15.379293
-505.131876 190.319092 -29.784525
-500.780849 144.124460 -34.326270
-472.554209 217.777202 -22.834339
-445.197106 239.221873 -16.885103
-465.265074 119.796646 -19.824359
-470.839070 223.109803 -28.673939
-512.994686 208.365119 -35.909000
-474.761425 115.698767 -23.990783
-485.848877 178.891009 -8.341097
-454.733165 148.546103 -29.696293
-491.586151 237.264878 -3.321551
-491.006270 221.855447 -35.903474
-446.304664 148.056802 -18.195455
-471.312453 121.343069 -13.385284
-492.279248 278.494559 -7.071608
-476.541795 176.380152 -24.144982
-478.669495 223.609399 -33.182218
-474.211841 219.375889 -18.666759
-477.201244 275.812508 -8.398867
-491.025976 136.631254 -34.623204
-478.818998 227.646989 -7.440338
-485.409987 176.925955 -29.153041
-478.298171 173.514147 -10.874577
-446.766329 243.689498 -21.927905
-499.795432 208.302903 -29.863061
-470.201114 227.744569 -31.607890
-470.473701 285.132308 -14.866738
-479.582268 133.797153 -6.721939
-500.631342 151.913266 -34.610584
-469.366095 227.203561 -9.692547
-445.893994 231.068758 -17.174976
-458.241875 285.516380 -17.772484
-472.895816 281.165220 -21.922092
-449.123122 276.833655 -18.430407
-502.507619 181.267239 -4.439377
-485.555221 215.390157 -24.061348
-518.904562 275.964958 -32.132323
-502.790862 247.204125 -36.818264
-489.693839 226.431833 -6.666725
-459.807250 221.094837 -17.776146
-505.688021 224.059267 -3.363696
-448.673033 132.142399 -21.611255
-455.610581 236.521267 -15.351413
-449.970181 264.782237 -15.872650
-452.063536 130.998664 -16.363602
-509.337015 180.121679 -36.735747
-503.632686 192.453470 -22.925583
-476.711905 171.320601 -28.062947
-494.999962 246.312346 -4.641248
-455.005112 269.915896 -25.382295
-490.998291 148.173347 -35.874375
-452.929293 167.917025 -24.731235
-476.795577 174.853416 -12.719081
-460.809372 170.351568 -22.182168
-478.471435 176.242209 -26.564439
-486.904859 176.208661 -28.099131
-449.536472 151.979361 -22.752628
-446.680372 276.779805 -22.936430
-459.375971 238.196159 -26.906675
-445.716095 269.512416 -26.402885
-446.510784 267.891445 -25.044729
-471.487678 132.630581 -32.072613
-447.628335 280.341927 -22.963746
-484.341816 176.087188 -9.368310
-504.468504 151.138451 -33.530287
-459.779541 130.413188 -28.380446
-493.319207 274.758830 -3.839819
-446.952235 260.658875 -27.167432
-471.621747 245.162153 -32.624747
-462.303132 265.140453 -7.753121
-460.812411 165.672216 -13.814544
-444.750751 233.101989 -19.130692
-508.162356 197.598010 -7.759661
-513.079015 131.297387 -33.667287
-466.588416 228.753377 -31.891074
-444.854396 124.898425 -16.730332
-459.522415 145.543301 -32.350545
-480.716385 214.007442 -21.888975
-509.527926 198.978458 -5.306885
-497.790591 212.741073 -12.511987
-445.696863 137.164494 -24.503008
-458.255430 256.096998 -8.322321
-445.682750 235.633624 -17.634169
-476.170698 227.562171 -6.791148
-466.017140 159.972311 -31.821027
-482.454494 175.812370 -23.851414
-455.389588 283.179520 -20.091506
-481.099330 140.528245 -33.639827
-456.574435 277.649387 -27.926372
-467.049106 157.483085 -29.598703
-512.095227 199.057925 -35.799534
-468.675996 277.010025 -26.272168
-449.581600 134.749093 -18.770423
-445.769372 123.247442 -16.129253
-512.945748 202.090175 -4.652770
-472.035498 167.893220 -31.799786
-507.195678 168.270372 -3.766563
-444.065716 279.216078 -21.064893
-459.786037 225.250472 -13.579026
-470.598255 235.737636 -32.284983
-450.849029 242.114951 -11.652734
-475.915469 225.120899 -32.382594
-478.771569 282.634106 -9.928102
-506.385723 185.178305 -35.418152
-447.797766 232.282882 -16.420994
-498.073950 174.513425 -3.536435
-469.377162 123.034364 -32.539542
-448.316586 154.858114 -20.999535
-477.691311 171.590200 -12.164253
-512.103643 205.437732 -3.236185
-508.880329 186.124247 -5.177023
-483.528453 121.013531 -31.091239
-455.274811 129.790336 -27.269283
-503.907453 220.723248 -37.674375
-457.906874 128.004668 -27.333992
-484.942419 217.922742 -31.523741
-483.819060 227.229957 -33.024001
-501.467961 162.315451 -5.868080
-453.696888 240.361520 -23.637678
-453.406489 244.593296 -10.738926
-492.986834 216.231055 -32.791776
-458.013786 128.365316 -12.870255
-480.657705 280.311937 -28.170469
-492.285815 139.836966 -34.073932
-485.861869 175.907716 -27.475343
-505.231186 261.945909 -2.429910
-448.589020 245.812028 -19.908896
-496.321724 214.052536 -28.753744
-488.417440 217.689548 -8.535605
-464.951391 163.756355 -13.211636
-467.976140 131.129518 -31.626987
-515.968100 273.738550 -6.654820
-485.871781 179.397761 -17.576153
-487.507627 266.419015 -5.870387
-484.138968 217.392243 -26.603288
-479.478247 117.628187 -8.316453
-448.507448 279.409844 -18.341573
-467.642932 262.071099 -8.243278
-474.091265 269.577746 -31.659150
-437.597640 244.626755 -20.104569
-445.858809 126.125841 -18.078387
-478.242201 278.583012 -9.126590
-441.346665 243.150380 -25.736990
-516.129908 127.698084 -32.034952
-474.601248 115.845836 -14.288381
-505.057043 198.945952 -27.131211
-488.519700 241.424314 -35.999937
-444.116495 143.816495 -26.349831
-467.342516 158.243574 -7.489581
-502.338852 205.188467 -29.469366
-506.246888 210.930751 -5.399901
-458.587988 171.344193 -13.876473
-466.313418 264.149936 -32.745589
-456.848484 161.225618 -22.139016
-503.488556 201.118039 -22.406192
-462.836592 270.188705 -11.416243
-477.601587 137.409313 -6.678043
-491.831577 176.826566 -10.466248
-447.326067 281.987633 -17.423782
-453.512015 125.680451 -23.341863
-465.800648 131.509156 -10.865651
-488.270126 123.467694 -7.702819
-454.318778 132.586555 -12.691310
-503.992319 194.389851 -16.978549
-461.425902 282.925421 -25.239678
-440.764163 249.115761 -15.252487
-448.562299 228.744832 -18.172716
-459.540989 285.572319 -24.443798
-515.598146 122.922858 -11.361195
-462.143078 269.465424 -29.904467
-513.070415 198.510966 -36.942900
-460.940749 174.059241 -23.093341
-481.806801 179.701332 -10.563928
-446.852804 134.738411 -19.055338
-500.476288 225.326645 -34.220294
-469.963890 132.663609 -7.895222
-501.831898 278.463190 -35.324142
-461.856919 170.927510 -26.354038
-512.926849 189.849227 -5.921715
-452.947608 233.174007 -13.476046
-514.721322 126.451733 -26.499888
-449.990960 139.284948 -24.069358
-499.222563 275.604862 -35.613536
-454.206526 276.538892 -27.053070
-467.890362 129.912695 -8.389650
-478.741806 223.823767 -7.980173
-444.617143 131.201751 -16.504332
-477.885809 223.475274 -9.946012
-457.607057 162.678176 -20.682225
-503.478594 186.735789 -7.854530
-465.700279 150.978708 -31.084293
-471.566288 122.441946 -12.988009
-515.644566 275.049110 -13.144519
-460.783636 164.418311 -25.757766
-469.854861 125.459490 -33.296671
-485.202999 177.567100 -17.142682
-461.958762 253.912032 -11.959115
-500.649146 208.170906 -11.105138
-462.108069 164.306255 -25.728930
-466.824737 246.039110 -30.673682
-492.039035 133.932171 -35.682412
-470.256640 269.945519 -6.949227
-454.440774 227.386388 -24.998724
-493.293396 179.995158 -8.983551
-492.562376 215.437049 -29.952557
-463.148378 165.978202 -27.849216
-488.267960 228.444168 -5.855140
-457.607711 125.009692 -14.848245
-452.725940 238.987059 -22.082635
-502.432778 187.633311 -28.537441
-486.055318 120.125246 -10.310326
-446.305322 237.266537 -16.202452
-449.371650 143.868810 -23.762034
-504.572555 195.989965 -18.476012
-525.844919 205.789975 -35.897288
-483.607483 173.459834 -10.484781
-478.412356 174.905354 -24.724420
-442.618534 265.266837 -17.548310
-511.071849 181.046612 -35.302124
-446.297648 122.727535 -20.696193
-465.203520 254.612010 -31.812896
-451.500635 232.223902 -19.431071
-446.049958 130.106331 -24.800772
-504.640822 193.991101 -22.248752
-467.452877 163.698728 -31.087880
-465.498719 151.393819 -9.269401
-460.191837 133.389539 -9.226819
-444.281128 276.996054 -22.094023
-508.372069 222.610266 -36.976610
-500.844357 233.693494 -2.943131
-468.376181 129.803600 -11.453056
-471.483868 159.297662 -32.720674
-500.452097 188.016754 -27.521310
-521.424177 221.852872 -36.610175
-471.483963 230.186324 -31.717451
-490.565792 168.914041 -6.206366
-473.385559 173.176865 -18.668402
-449.599404 131.545117 -15.907475
-499.272324 178.708488 -7.233320
-515.232242 126.992701 -32.227272
-463.956489 264.247650 -31.483196
-475.584435 223.667816 -12.286357
-500.251606 216.261136 -35.570221
-511.548248 207.083160 -5.955229
-475.553563 120.884530 -14.497875
-476.330088 127.714342 -7.210540
-464.811759 167.880131 -14.396605
-499.024565 231.477070 -34.992051
-454.265095 151.369887 -11.370150
-492.617720 257.041456 -37.564801
-469.893946 260.338998 -6.838616
-490.892937 274.772235 -35.865525
-482.309998 116.943026 -8.184757
-442.065133 258.912187 -24.171100
-464.852737 131.675977 -9.355026
-502.636833 175.187034 -3.623949
-473.946299 265.390536 -32.538279
-467.753134 224.888381 -10.025372
-500.531036 208.795509 -19.316716
-498.871533 270.419107 -37.354423
-465.893518 167.073843 -8.907437
-507.022134 179.141484 -3.022130
-452.735516 265.498588 -27.240056
-477.059448 278.318001 -30.553017
-450.334744 242.177894 -25.434967
-502.374463 205.713092 -29.600665
-472.421094 278.742844 -30.358314
-505.706197 190.864938 -29.452217
-473.090023 218.001201 -9.567486
-455.219356 279.254098 -25.307932
-456.658014 282.573381 -22.451266
-471.262917 283.232451 -27.874269
-481.751816 117.498366 -29.889000
-469.298237 119.431977 -12.993805
-460.505356 123.094974 -15.348558
-462.960256 143.814753 -10.770203
-457.044861 134.420267 -9.387053
-458.411435 253.640061 -10.760725
-447.624907 235.256690 -20.118856
</DataArray>
</Points>
<PointData>
<DataArray NumberOfComponents='1' type='Int32' Name='ParticleType' format='ascii'>
1
1
1
1
1
1
1
1
1
1
1
1
1
1
1
1
1
1
1
1
1
1
1
1
1
1
1
1
1
1
1
1
1
1
1
1
1
1
1
1
1
1
1
1
1
1
1
1
1
1
1
1
1
1
1
1
1
1
1
1
1
1
1
1
1
1
1
1
1
1
1
1
1
1
1
1
1
1
1
1
1
1
1
1
1
1
1
1
1
1
1
1
1
1
1
1
1
1
1
1
1
1
1
1
1
1
1
1
1
1
1
1
1
1
1
1
1
1
1
1
1
1
1
1
1
1
1
1
1
1
1
1
1
1
1
1
1
1
1
1
1
1
1
1
1
1
1
1
1
1
1
1
1
1
1
1
1
1
1
1
1
1
1
1
1
1
1
1
1
1
1
1
1
1
1
1
1
1
1
1
1
1
1
1
1
1
1
1
1
1
1
1
1
1
1
1
1
1
1
1
1
1
1
1
1
1
1
1
1
1
1
1
1
1
1
1
1
1
1
1
1
1
1
1
1
1
1
1
1
1
1
1
1
1
1
1
1
1
1
1
1
1
1
1
1
1
1
1
1
1
1
1
1
1
1
1
1
1
1
1
1
1
1
1
1
1
1
1
1
1
1
1
1
1
1
1
1
1
1
1
1
1
1
1
1
1
1
1
1
1
1
1
1
1
1
1
1
1
1
1
1
1
1
1
1
1
1
1
1
1
1
1
1
1
1
1
1
1
1
1
1
1
1
1
1
1
1
1
1
1
1
1
1
1
1
1
1
1
1
1
1
1
1
1
1
1
1
1
1
1
1
1
1
1
1
1
1
1
1
1
1
1
1
1
1
1
1
1
1
1
1
1
1
1
1
1
1
1
1
1
1
1
1
1
1
1
1
1
1
1
1
1
1
1
1
1
1
1
1
1
1
1
1
1
1
1
1
1
1
1
1
1
1
1
1
1
1
1
1
1
1
1
1
1
1
1
1
1
1
1
1
1
1
1
1
1
1
1
1
1
1
1
1
1
1
1
1
1
1
1
1
1
1
1
1
1
1
1
1
1
1
1
1
1
1
1
1
1
1
1
1
1
1
1
1
1
1
1
1
1
1
1
1
1
1
1
1
1
1
1
1
1
1
1
1
1
1
1
1
1
</DataArray>
<DataArray NumberOfComponents='1' type='Int32' Name='ParticleID' format='ascii'>
0
1
2
3
4
5
6
7
8
9
10
11
12
13
14
15
16
17
18
19
20
21
22
23
24
25
26
27
28
29
30
31
32
33
34
35
36
37
38
39
40
41
42
43
44
45
46
47
48
49
50
51
52
53
54
55
56
57
58
59
60
61
62
63
64
65
66
67
68
69
70
71
72
73
74
75
76
77
78
79
80
81
82
83
84
85
86
87
88
89
90
91
92
93
94
95
96
97
98
99
100
101
102
103
104
105
106
107
108
109
110
111
112
113
114
115
116
117
118
119
120
121
122
123
124
125
126
127
128
129
130
131
132
133
134
135
136
137
138
139
140
141
142
143
144
145
146
147
148
149
150
151
152
153
154
155
156
157
158
159
160
161
162
163
164
165
166
167
168
169
170
171
172
173
174
175
176
177
178
179
180
181
182
183
184
185
186
187
188
189
190
191
192
193
194
195
196
197
198
199
200
201
202
203
204
205
206
207
208
209
210
211
212
213
214
215
216
217
218
219
220
221
222
223
224
225
226
227
228
229
230
231
232
233
234
235
236
237
238
239
240
241
242
243
244
245
246
247
248
249
250
251
252
253
254
255
256
257
258
259
260
261
262
263
264
265
266
267
268
269
270
271
272
273
274
275
276
277
278
279
280
281
282
283
284
285
286
287
288
289
290
291
292
293
294
295
296
297
298
299
300
301
302
303
304
305
306
307
308
309
310
311
312
313
314
315
316
317
318
319
320
321
322
323
324
325
326
327
328
329
330
331
332
333
334
335
336
337
338
339
340
341
342
343
344
345
346
347
348
349
350
351
352
353
354
355
356
357
358
359
360
361
362
363
364
365
366
367
368
369
370
371
372
373
374
375
376
377
378
379
380
381
382
383
384
385
386
387
388
389
390
391
392
393
394
395
396
397
398
399
400
401
402
403
404
405
406
407
408
409
410
411
412
413
414
415
416
417
418
419
420
421
422
423
424
425
426
427
428
429
430
431
432
433
434
435
436
437
438
439
440
441
442
443
444
445
446
447
448
449
450
451
452
453
454
455
456
457
458
459
460
461
462
463
464
465
466
467
468
469
470
471
472
473
474
475
476
477
478
479
480
481
482
483
484
485
486
487
488
489
490
491
492
493
494
495
496
497
498
499
</DataArray>
<DataArray NumberOfComponents='1' type='Int8' Name='IsActive' format='ascii'>
1
1
1
1
1
1
1
1
1
1
1
1
1
1
1
1
1
1
1
1
1
1
1
1
1
1
1
1
1
1
1
1
1
1
1
1
1
1
1
1
1
1
1
1
1
1
1
1
1
1
1
1
1
1
1
1
1
1
1
1
1
1
1
1
1
1
1
1
1
1
1
1
1
1
1
1
1
1
1
1
1
1
1
1
1
1
1
1
1
1
1
1
1
1
1
1
1
1
1
1
1
1
1
1
1
1
1
1
1
1
1
1
1
1
1
1
1
1
1
1
1
1
1
1
1
1
1
1
1
1
1
1
1
1
1
1
1
1
1
1
1
1
1
1
1
1
1
1
1
1
1
1
1
1
1
1
1
1
1
1
1
1
1
1
1
1
1
1
1
1
1
1
1
1
1
1
1
1
1
1
1
1
1
1
1
1
1
1
1
1
1
1
1
1
1
1
1
1
1
1
1
1
1
1
1
1
1
1
1
1
1
1
1
1
1
1
1
1
1
1
1
1
1
1
1
1
1
1
1
1
1
1
1
1
1
1
1
1
1
1
1
1
1
1
1
1
1
1
1
1
1
1
1
1
1
1
1
1
1
1
1
1
1
1
1
1
1
1
1
1
1
1
1
1
1
1
1
1
1
1
1
1
1
1
1
1
1
1
1
1
1
1
1
1
1
1
1
1
1
1
1
1
1
1
1
1
1
1
1
1
1
1
1
1
1
1
1
1
1
1
1
1
1
1
1
1
1
1
1
1
1
1
1
1
1
1
1
1
1
1
1
1
1
1
1
1
1
1
1
1
1
1
1
1
1
1
1
1
1
1
1
1
1
1
1
1
1
1
1
1
1
1
1
1
1
1
1
1
1
1
1
1
1
1
1
1
1
1
1
1
1
1
1
1
1
1
1
1
1
1
1
1
1
1
1
1
1
1
1
1
1
1
1
1
1
1
1
1
1
1
1
1
1
1
1
1
1
1
1
1
1
1
1
1
1
1
1
1
1
1
1
1
1
1
1
1
1
1
1
1
1
1
1
1
1
1
1
1
1
1
1
1
1
1
1
1
1
1
1
1
1
1
1
1
1
1
1
1
1
1
1
1
1
1
1
1
1
1
1
1
1
1
1
1
1
1
1
1
1
1
</DataArray>
<DataArray NumberOfComponents='1' type='Int32' Name='ParticleTetID' format='ascii'>
21422
21177
15607
11309
10395
23923
14738
10193
23617
10100
14738
12074
17947
22844
13413
206
15251
2040
13573
14103
3606
20359
14950
7908
205
14949
21807
15254
13589
1191
7118
4700
9779
2489
10573
4845
14736
14103
17420
16464
12747
22178
4714
12757
13185
16792
20499
10394
2135
3155
2886
1117
18331
19691
19693
20777
13574
22027
207
9726
22859
2886
9777
3154
2498
20554
21361
205
16185
16458
23946
3869
9783
2890
21420
2425
3164
13423
13182
2491
22793
3156
2136
23535
10323
22842
7905
21176
16193
3612
18393
207
13183
14738
24275
18378
17947
11309
2984
14314
14737
10571
1847
19812
1844
14944
22401
3609
1844
16191
14104
2273
20018
19810
13413
13423
2494
1192
10567
21810
15461
21349
2132
16461
2489
23091
23875
2487
10397
14323
22790
21241
204
12444
22406
14791
15231
3157
9785
21242
3159
13424
15260
12860
10394
7905
9567
11308
14792
14792
12748
1193
3607
10394
2044
10570
7800
19813
11971
15679
3154
15610
2891
1845
23438
2488
11686
4852
9726
9726
10573
24044
14947
1117
19808
2488
10690
17415
3155
10397
2494
1202
23405
2130
9570
2044
2136
10574
22399
10100
1846
24276
3608
2498
20016
10290
3609
9564
16856
14323
14950
11316
23093
22279
7797
23175
23438
11686
23534
19692
3158
3159
2887
207
12757
3611
24272
2498
15250
15461
10394
17922
23145
4853
10393
16189
2496
16793
9567
19803
10290
4214
23633
23875
16188
9795
24275
2425
4849
18167
23829
563
19812
24268
14949
13783
2497
9780
12747
23145
2489
7118
2132
9783
2131
18055
17416
10580
20627
23619
3157
18704
14105
13184
2886
14102
6191
2277
24276
10100
11691
23452
12862
24268
18333
24274
19812
10289
207
14952
208
2890
12758
2135
22397
23145
16464
9794
2892
10201
1191
18330
7118
11705
20375
2497
23534
24044
15363
21242
11974
18405
11687
14947
2487
14737
22403
2133
22803
2136
14737
19709
2044
14102
23534
21240
14792
15211
207
3156
13423
14944
4856
7905
17927
13183
17624
16195
3609
24268
16778
1100
9732
14106
18395
16464
17419
571
4699
14951
14945
15530
16456
9804
23829
19812
19674
14947
15692
19587
15250
12758
10567
22399
18163
17416
7797
2131
1193
2983
10323
23534
9795
10396
12074
9564
8166
4229
16858
14727
21812
17569
18330
1201
3610
8165
1193
14313
17699
2131
16463
12749
9723
14098
11708
2044
10322
13183
2135
12065
1200
19709
18334
22397
14101
12329
12747
15623
18334
1099
13182
12070
23950
15623
2136
12749
2415
23532
2415
12861
17913
22280
16186
10570
18335
16195
22399
11309
21801
18334
10201
23829
1191
13187
17697
15530
18336
559
16458
14951
17924
9725
14947
23879
11707
23218
22397
24274
2887
6191
16463
11316
13183
23537
11709
14791
22271
14097
209
18719
10692
12749
14737
22028
358
2498
20773
21176
14102
15231
12074
1202
4846
15694
16777
16190
12747
15254
20555
10283
13587
2973
9809
9723
1846
12749
22952
2983
2488
11978
20032
15251
22824
2892
7914
14950
21810
9786
1110
4847
2135
2135
9786
9732
16186
16458
24035
14097
11309
14949
</DataArray>
<DataArray NumberOfComponents='3' type='Float32' Name='vels' format='ascii'>
1.258656 0.239668 -0.001583
3.352874 -0.179775 -0.000245
0.936334 0.261108 0.002503
3.028157 0.268685 0.002566
4.046646 0.050180 0.000817
2.794538 -0.527140 0.005425
3.834545 -0.436156 0.000761
4.053128 0.579371 -0.001765
1.725304 0.245831 -0.000838
2.342989 0.395156 0.003973
3.576256 -0.309110 -0.001409
0.360720 -0.104016 -0.001060
1.334358 0.612671 0.039354
1.792618 -0.314370 0.000879
3.628292 0.457894 -0.000070
3.872416 1.331840 0.001159
2.948036 -0.141548 0.003674
3.733489 0.944790 -0.003741
0.787445 0.126063 -0.001187
3.789412 -0.981453 0.001414
4.039650 -0.069406 -0.001257
2.500760 -0.559132 0.013473
4.068962 0.084328 0.000059
2.365455 0.656352 -0.000559
3.887052 1.394139 0.001630
4.252887 0.246266 0.002534
0.935183 0.829344 -0.011843
3.767091 -0.185522 0.001776
2.100679 0.384389 -0.001213
2.325193 0.580185 -0.001135
3.851703 -0.053754 0.007062
0.188265 -0.044255 -0.000627
2.793660 0.742839 0.003926
3.490888 0.229181 0.000995
0.066107 0.019445 -0.000689
2.666721 0.133336 -0.003329
3.838283 -0.298278 -0.003649
3.900946 -0.884400 0.003205
2.889877 0.277087 0.005095
3.222514 -0.795408 0.001084
2.541486 -0.541680 -0.000466
1.341077 -0.275449 -0.000216
1.395152 -0.293809 -0.003813
3.030649 -0.750245 0.002068
4.340220 0.157268 -0.005299
0.642730 0.329960 -0.003708
1.812578 -0.350885 -0.007002
3.929689 -0.232606 0.001082
3.529454 1.092064 -0.003539
3.139217 0.126242 -0.007899
3.673817 0.890628 -0.001153
1.850503 0.186657 0.000551
3.787114 -0.134103 0.003678
1.713441 0.353109 -0.009613
0.356668 0.007313 0.019340
2.613741 -0.323572 -0.002532
1.617445 0.337396 -0.001106
0.109085 -0.172559 -0.016952
3.976548 1.163362 -0.001517
3.088989 -0.789486 -0.004336
0.243277 -0.043897 -0.000344
3.726030 0.811718 0.003105
2.239367 0.616928 0.002402
2.782701 0.053635 -0.007436
3.301193 0.226574 0.000616
1.269264 0.222081 -0.000494
2.549093 -0.509253 -0.001805
3.871616 1.392890 0.001518
2.877490 -0.634059 -0.002928
3.637240 -0.892351 0.001270
3.822654 -0.571235 0.003009
0.397340 -0.123777 -0.005932
3.141281 0.854641 0.003154
3.710256 0.828022 -0.003870
1.213373 0.211155 -0.000503
1.694749 0.088368 0.011346
2.944809 0.085969 -0.003198
2.861521 0.254691 -0.001342
3.829598 -0.031006 0.003371
4.357816 0.324965 -0.003822
2.982859 -0.458359 -0.000045
3.661110 0.079969 -0.008698
3.407929 0.971139 0.000983
3.623020 -0.785197 0.003332
3.883843 -0.026682 -0.000700
1.659755 -0.300099 0.002800
2.809247 0.743954 0.000167
2.753838 -0.122579 -0.002669
3.793432 -0.892678 0.001027
3.720889 -0.082180 -0.003132
1.663028 0.495517 -0.005559
4.051320 1.152689 0.000236
4.341100 0.119596 -0.004859
3.605877 -0.315335 -0.001538
3.380301 -0.225436 0.001379
0.977796 0.287977 0.002521
1.849675 0.616146 0.033856
3.491495 0.396703 0.001630
3.650331 0.807105 0.000949
3.773945 -0.738730 -0.000082
2.650568 -0.244640 -0.001169
0.002664 0.000803 -0.001886
3.659263 0.554258 -0.006447
2.943476 -0.429644 0.006394
3.835648 0.431258 -0.001200
3.499915 0.134745 0.001333
2.437162 -0.119730 0.006901
4.252594 -0.170549 -0.003423
3.665034 0.409142 0.002005
3.579553 -0.881102 -0.000548
3.718626 -0.934509 0.001235
0.095005 -0.189114 0.038527
0.966426 0.233557 0.004409
3.235124 -0.369530 0.003718
3.558442 0.443801 -0.000022
3.065186 0.283532 0.002791
4.056414 0.245065 -0.001312
3.343832 0.836015 -0.000762
0.344829 0.098934 0.000473
0.540663 0.510882 -0.045581
1.263478 -0.334969 -0.001566
1.453668 -0.247648 0.001857
3.244218 1.001942 -0.003916
3.537496 -0.987226 0.006385
3.509997 0.242179 -0.001352
1.746640 0.387209 -0.000427
4.055522 -0.307990 0.000684
3.257367 0.224171 -0.003007
4.057103 0.274361 0.001133
2.590769 -0.436269 -0.000763
1.604142 -0.265833 -0.000282
0.487526 0.271719 0.051170
3.509415 1.186481 -0.001138
3.416206 -1.122346 -0.000775
2.104191 -0.142651 0.011204
2.604238 -0.205248 0.000081
2.242717 -0.730383 0.016505
3.189205 0.090925 -0.004675
3.291913 0.888740 0.006617
0.425035 0.204622 0.024428
3.240346 0.086754 -0.001710
3.421870 0.394603 0.002672
2.587056 -0.166483 0.001905
3.968200 -0.132441 0.001122
4.020301 -0.000179 0.002153
3.108223 0.790035 -0.006896
2.960575 -0.778816 -0.004591
3.836945 0.416284 0.002081
3.509026 -0.271518 -0.000191
3.085813 -0.215310 0.001187
3.211301 -0.787609 -0.000268
3.393119 0.724376 0.002261
4.214816 -0.106742 -0.004076
3.972035 0.177264 0.003253
3.438751 0.963132 0.001000
0.003045 0.000895 -0.000530
2.882778 -0.752860 0.000050
2.097014 -0.188801 0.010727
1.626679 0.673373 0.021206
1.362168 0.423715 0.002848
2.411488 0.053042 -0.008431
1.259253 0.354509 0.004097
3.845627 0.838109 -0.001710
3.514950 1.050521 -0.004479
2.664186 -0.549391 0.005571
3.515046 0.169843 -0.002974
3.442849 0.625326 0.002945
3.210736 0.161735 -0.000288
3.076662 -0.785554 -0.004726
2.709417 -0.716207 -0.001255
0.233922 0.068604 -0.001109
2.818266 -0.387242 -0.001500
4.248825 -0.025735 -0.001449
2.519474 0.272801 -0.000085
2.718610 -0.338930 -0.007958
2.957501 0.113887 -0.001135
0.026056 0.008699 0.000425
2.494984 0.123448 0.006853
3.422311 0.161087 -0.008669
3.739613 -0.131382 -0.004209
3.745690 0.197254 0.000458
3.400295 0.741294 -0.000333
3.085360 -0.274784 -0.006737
3.336810 0.979812 0.000984
2.513252 -0.671096 -0.000026
3.493839 0.884459 0.002471
3.446189 1.001455 0.000429
0.006474 0.001917 -0.000518
2.556478 -0.225760 -0.004514
1.909139 0.324345 0.002195
3.809407 1.163440 -0.003182
3.060767 -0.210946 0.000956
4.022753 -0.138527 -0.000241
2.987598 0.208101 -0.000261
1.246099 0.261760 0.001283
3.771009 -0.275871 -0.003285
4.190029 -0.032379 -0.002830
2.991342 -0.774926 -0.000750
3.004235 -0.200230 0.008560
2.714775 -0.460235 -0.000707
4.331931 0.137438 -0.002270
3.965522 0.440905 0.004933