<VTKFile type='UnstructuredGrid' version='1.0' byte_order='LittleEndian' header_type='UInt64'>
<UnstructuredGrid>
<Piece NumberOfCells='500' NumberOfPoints='500'>
<Points>
<DataArray NumberOfComponents='3' type='Float32' Name='Position' format='ascii'>
660.723834 182.022293 -4.655296
1029.059357 188.209033 -16.808274
-75.201125 380.945266 -6.334647
953.006279 241.916089 -6.349004
1029.278797 232.304881 -20.074967
-73.574451 108.579218 -2.437306
1029.253611 152.748402 -21.930599
1028.999307 227.831264 -4.645276
643.644511 185.222675 -3.990763
339.842511 276.415612 -5.251175
1029.136333 154.676584 -29.201451
89.626744 177.684449 -26.364184
304.359793 218.703651 -6.181218
724.576541 134.492431 -4.319217
640.808675 216.790590 -4.354458
1029.359902 252.147987 -15.006536
1029.119520 187.784713 -4.743284
1029.087137 262.783777 -11.868301
499.073452 246.000383 -6.273054
1029.193912 138.980634 -19.474711
1029.180406 166.324271 -12.000646
812.164799 82.051310 -4.555558
1029.076102 228.539705 -26.569211
460.844149 396.361686 -3.655461
1029.103216 249.678682 -17.080837
1028.990499 208.533237 -16.447437
1029.196326 188.604010 -17.100767
1029.136178 186.426719 -8.694585
286.202872 291.737060 -37.651463
1029.023483 265.307023 -7.267714
704.306720 215.135197 -12.110074
520.528580 96.170963 -5.549973
1029.231420 262.000992 -8.732897
1029.083701 205.611464 -10.271489
422.306524 386.274159 -3.543799
1028.995048 200.728172 -8.454059
1029.074164 155.183680 -27.112406
1029.321351 153.281068 -16.377951
730.726258 177.889951 -31.492335
1028.982668 142.206514 -26.628187
1028.977491 138.452308 -6.168599
753.942962 138.987613 -2.665146
568.602942 59.867129 -36.204634
1029.147816 142.387907 -29.713177
846.419374 212.695429 -17.711160
-183.988323 220.498155 -37.658688
366.968072 14.225973 -16.119264
1029.016275 203.193862 -10.300218
1029.339088 256.934836 -22.392138
782.894826 190.087228 -6.843704
1029.096555 251.048780 -9.627166
1028.976346 227.605951 -4.622459
1029.044092 190.888146 -17.070591
359.444787 304.813807 -37.353850
-492.018689 186.806511 -2.211109
1029.140656 185.673421 -7.749712
675.230571 330.829025 -4.568560
-106.027578 181.167891 -31.002303
1029.281029 251.617953 -16.541149
780.220363 52.227318 -11.743974
893.732968 119.061063 -29.240611
1029.144067 251.298274 -9.433218
1029.034549 273.754103 -8.068011
1029.092811 199.203232 -10.424503
1029.099325 207.296483 -29.207397
386.206239 263.272729 -27.763528
753.230924 165.657359 -36.519121
1029.003818 260.121252 -19.353480
1029.219105 141.565174 -7.227381
1029.030335 140.847806 -10.327024
1029.210581 151.177371 -10.058554
-65.641430 190.850901 -34.789217
422.743582 386.163063 -3.664093
1029.370072 249.889205 -17.917543
671.174495 222.367982 -3.688235
607.947094 214.274168 -30.943790
1028.990420 203.263316 -27.345185
1029.088630 226.583231 -26.791639
688.698249 192.141235 -7.882036
697.069255 182.388758 -13.210304
1024.387369 150.191723 -4.602913
1029.075219 199.084609 -13.594524
1029.306689 250.607125 -21.757990
1029.275264 140.263570 -17.033113
1029.110714 228.986199 -22.802082
771.094112 141.698327 -4.044342
1029.118126 264.933374 -10.231840
1029.150350 191.275146 -16.086105
1029.304192 140.303527 -20.675616
1029.296586 152.742705 -21.728450
521.168988 197.592858 -33.484591
1029.317875 251.504023 -16.457303
1029.142010 196.584875 -14.344229
1029.292726 155.217574 -29.018318
1029.213633 188.409014 -16.858498
536.632902 204.499408 -1.758418
397.863643 67.514712 0.024426
1029.083866 230.763947 -4.547148
1029.337316 249.376128 -23.538960
1029.006290 140.497051 -6.606818
1029.101994 154.322595 -29.456101
259.155892 363.954446 -12.661774
1029.023898 231.951962 -20.916878
-432.435197 176.870514 -26.665826
-284.463553 261.225112 -20.010092
1029.244989 230.300666 -9.687840
1029.187334 191.618517 -20.456878
1029.318341 165.992030 -17.959244
-260.556565 265.562421 -19.948127
1028.977543 140.299234 -17.001177
1029.189046 140.141349 -19.420439
-501.267320 192.625380 -9.211176
498.518919 360.411307 -4.952515
1029.088515 191.145182 -20.070877
1029.119364 214.611647 -7.296110
1029.162892 231.219450 -28.952026
439.405743 74.083365 -21.034535
1029.069190 250.884586 -9.429735
-110.470462 386.596727 -5.689448
1029.161448 191.361488 -22.229912
282.278318 152.990550 -36.172338
1029.017562 182.407524 -4.431521
1029.203531 259.133438 -14.979347
1029.386622 140.349597 -17.517165
823.098087 212.685268 -8.839563
122.308662 222.313300 -33.715747
377.639320 41.467018 -2.348081
712.139633 212.639553 -7.082736
1029.257480 229.715106 -21.899225
1029.221177 141.549552 -28.168380
612.441673 59.521259 -5.103831
-142.169687 214.799019 -5.663854
1029.184340 250.622315 -9.354484
1029.115912 138.104862 -11.754595
1029.020587 188.147850 -23.823336
1029.259073 166.069571 -28.080659
1029.121508 190.466885 -8.136797
1029.124786 206.293152 -17.948811
422.237684 386.356569 -3.913509
-142.500553 213.636406 -4.142243
1028.976683 198.275371 -20.143932
1029.216848 231.067388 -27.441933
935.241655 169.510267 -36.395897
1029.134359 189.002731 -8.993922
1028.982673 228.031097 -11.093356
1029.039157 263.371907 -6.178223
983.190094 111.977823 -21.001133
1029.064718 230.128527 -9.890916
1029.261154 171.158954 -29.184869
381.472231 52.266270 -10.001146
1029.152980 136.636137 -10.985803
1028.980528 254.689233 -4.344013
1029.072949 189.720784 -13.672791
1029.126679 229.823613 -11.368067
1029.116635 266.379400 -22.171789
1029.076227 263.962610 -11.302050
1029.194718 140.926378 -10.790143
309.750731 148.124546 -32.285363
513.849196 157.614456 -2.580469
553.398755 187.589111 -5.572755
951.900801 219.725089 -12.843109
899.407368 303.094639 -11.761966
1029.165082 249.277036 -18.436584
1029.236544 229.448986 -17.039859
599.452662 109.176565 -1.888019
1029.046234 203.253687 -14.894425
1029.162656 250.509853 -9.214404
355.509236 78.109859 -24.932101
563.030836 4.231684 -13.336873
720.075448 39.321104 -12.499598
253.761192 324.826841 -16.677598
1028.993105 141.600352 -27.791848
1029.312762 229.305865 -15.668280
850.988095 220.872767 -4.011657
1029.207264 189.143456 -11.935037
1029.079315 195.523317 -11.910939
-521.913156 274.715689 -37.155767
1029.232534 189.628657 -19.390733
1029.052152 201.313464 -9.953693
1029.259166 229.986926 -17.220021
1029.103068 198.247599 -27.320136
1028.989402 252.799752 -25.582654
1029.160703 187.417509 -7.500706
1029.086343 261.955222 -10.171866
90.210417 179.675024 -26.184835
1029.196213 265.861447 -23.563606
1029.060599 250.741090 -23.158830
1028.978047 263.287548 -11.028804
560.809270 163.225463 -17.410283
-102.110268 317.963025 -3.578410
1029.184939 230.710144 -21.207296
1029.139103 188.001014 -24.091368
1029.296602 165.116357 -11.684768
771.182512 212.663064 -28.661125
364.792793 322.381554 -2.627704
1029.246652 152.097065 -21.274371
1029.238727 166.185289 -18.220476
714.065790 33.518818 -12.468317
1029.317852 166.310171 -11.196974
1029.074538 141.753036 -28.112455
1028.978325 226.681346 -19.098767
1029.070636 229.001683 -26.946571
386.184086 285.379559 -30.890721
1029.076318 154.088305 -26.648681
1029.022982 123.593200 -7.574731
1029.134247 165.425647 -17.916420
784.357965 90.681866 -4.006181
1028.993193 251.027087 -9.360745
1029.191202 138.906774 -12.100933
-48.276978 203.334550 -3.073579
790.843373 212.671420 -15.948524
1028.987540 207.207378 -15.083185
1029.256612 249.121303 -18.632310
1029.083419 261.565138 -18.628778
1029.186294 141.644426 -26.875536
1029.125480 163.915666 -20.865933
1029.067550 187.903334 -11.437351
780.158774 212.668376 -28.398868
1028.977323 191.701105 -10.560304
126.774241 161.102345 -35.063084
1029.130325 227.908705 -11.363294
1029.161652 187.907923 -23.740786
670.060310 52.149519 -27.852176
1028.994581 191.539402 -20.807746
1029.089074 228.582486 -11.134421
1029.032689 139.337093 -11.491075
927.356623 181.911714 -26.605708
372.620258 58.008078 -18.904551
1028.977700 123.771931 -20.853404
1029.118109 188.779216 -7.828990
1029.058995 154.448558 -27.720059
431.909000 254.555876 0.000849
543.514122 211.544621 -35.624995
1029.130825 162.909080 -15.085360
1029.287445 139.578995 -9.591735
549.131333 386.676001 -5.700075
1029.138655 191.579951 -20.417899
759.488685 219.841086 -26.038071
699.522370 180.820146 -19.915767
1029.215009 263.230013 -9.648705
1029.156459 142.382262 -28.460508
1029.034368 200.459019 -7.800582
1029.114565 185.116480 -26.917102
1029.027159 188.449629 -8.741109
1029.088616 227.990706 -18.525192
1028.995233 188.013687 -23.848952
765.031567 192.170510 -30.103184
1028.976192 263.358560 -7.415076
1028.983311 138.661981 -6.366192
544.510446 40.707034 -28.108267
1029.056723 204.324582 -9.094241
1028.993735 205.652109 -16.980837
1029.000713 266.680231 -14.841078
1029.019230 264.554280 -17.341043
1029.020443 260.195748 -17.082613
742.358364 171.382766 -6.011025
1029.136234 190.187559 -24.030354
104.450927 295.563812 -30.691649
253.539464 241.184997 -36.979748
667.850128 184.677182 -5.558311
316.704598 181.115640 -17.515237
678.682159 223.123544 -3.816499
1028.992364 140.724015 -18.226469
1029.094447 201.959905 -15.364515
1029.288175 250.532170 -11.240318
1028.982169 140.578835 -8.523235
432.032954 50.246411 -19.826204
-499.200096 188.888849 -25.266008
1028.991480 184.793799 -26.995024
62.736888 256.654951 -4.349277
1029.263509 251.378450 -21.648380
-405.988261 125.854648 -36.114883
1029.055936 181.494904 -18.997324
311.294597 150.328711 -10.426558
1029.168282 189.604127 -16.148881
530.959091 165.434864 -26.399010
1029.060040 188.469406 -26.483053
1029.156936 166.796368 -19.504463
1029.062033 251.332961 -17.754174
951.759947 220.005480 -19.847114
1029.058731 251.612451 -21.507725
1029.209896 251.530546 -18.765869
1029.226357 141.141672 -26.962504
1029.035831 258.818714 -21.723534
1029.137454 191.840832 -7.148699
646.408893 46.011257 -27.432782
1028.992617 143.275617 -33.765066
503.584533 364.584921 -3.783913
1029.052570 231.238678 -23.593649
1028.981230 228.890302 -26.848342
1029.093284 251.035262 -4.689537
1029.019086 186.784368 -8.920433
1029.062089 229.606706 -11.842059
-493.371131 185.964718 -4.348520
490.412149 8.026537 -29.421206
1029.120593 200.514852 -29.478235
1029.055737 139.105929 -11.640209
669.480916 84.311393 -32.537288
1029.084872 192.212440 -20.238293
-173.408938 212.845017 -5.207552
599.682542 181.005898 -12.457701
1028.996143 151.715862 -17.273462
1028.994285 231.174448 -6.028807
411.591621 245.039275 -3.410562
606.373112 214.750661 -4.654847
1029.256785 153.702561 -22.613375
1029.274629 189.295571 -19.419725
1028.980026 266.824802 -15.162600
856.354144 95.694777 -27.998421
1029.096721 252.600993 -23.946544
1029.235200 153.879772 -27.568629
-210.785516 213.451092 -36.173945
1029.187861 266.035594 -23.100899
1029.273908 151.732683 -17.452964
1029.014351 139.407205 -11.818104
-11.014857 217.064818 -4.678789
1028.984348 184.826144 -32.941579
777.955254 143.564169 -3.375552
1028.980649 249.835231 -21.175183
949.671336 188.859743 -11.086044
1029.188393 230.634547 -28.444128
1029.080799 230.197874 -9.454699
761.275445 213.697396 -30.953098
1029.079907 272.075715 -6.574468
1029.065069 166.705688 -29.107270
1029.008500 206.564596 -15.792315
681.551484 155.329414 -2.306616
1029.067852 141.603446 -27.818469
1029.069269 165.176413 -18.524279
1029.133526 191.427176 -10.540003
504.416121 145.116002 -2.658829
446.651985 73.912542 -2.987554
705.611091 30.897869 -25.738690
1029.220334 140.786220 -22.054353
466.480248 230.612407 -34.001474
1029.175277 141.288491 -25.554240
497.249362 160.547951 -30.531135
1028.983994 232.598256 -35.049830
724.486736 134.371206 -4.587535
1029.228811 229.056026 -21.423484
1029.263211 229.727649 -8.828450
551.979552 185.983615 -29.314475
1029.255636 140.847097 -10.347196
1029.144526 262.952322 -22.063480
872.175513 101.110142 -33.025920
1029.093018 189.431262 -22.359625
347.456478 327.295766 -2.495888
1029.246426 229.393185 -16.587050
1029.139657 191.405911 -25.144298
1029.093379 191.825392 -10.545870
1029.146176 187.848913 -9.040993
1029.240783 141.515258 -27.379984
-179.500368 370.209779 -6.195884
1029.025452 191.423095 -15.451683
643.531090 361.396109 -5.644274
345.225127 227.885653 -26.576916
685.569211 23.778225 -10.242949
1029.083022 262.773429 -19.497108
1029.086616 250.371744 -7.973811
1029.037398 262.781573 -26.167907
1029.137774 227.226450 -10.712844
1029.144133 141.824809 -12.094427
1028.988883 264.995240 -7.280992
1029.072346 230.843770 -24.585391
614.977186 9.682595 -28.740329
719.422762 34.272779 -11.823441
1029.022948 190.328694 -22.596931
383.696864 264.310487 -20.030122
-95.581842 106.593717 -26.051389
765.634191 140.236127 -5.968321
1028.999467 189.009184 -23.377562
318.292238 212.588837 -5.519845
1029.220458 185.847851 -11.251454
1029.284457 252.216365 -23.460776
1029.129728 164.701498 -20.667179
1029.238084 189.379812 -19.425016
1029.118967 255.401170 -11.213091
1028.998408 152.824558 -6.281295
1029.029557 189.622144 -9.059488
1029.097936 262.061277 -16.866182
1029.292222 139.341657 -20.537809
1029.028994 140.404660 -8.938870
866.016341 78.758548 -6.665997
1029.005844 140.255329 -9.204981
-497.816652 190.821685 -14.874992
422.364659 386.234165 -5.736371
1029.087163 227.049554 -11.271518
796.071919 188.440146 -19.294402
1029.258975 272.463903 -17.588611
62.135855 23.428045 -11.683578
1029.284670 252.620977 -25.589771
-243.032250 213.149637 -37.548451
1029.146218 191.360374 -20.366622
1029.105913 190.489401 -8.928432
1028.984297 152.167014 -15.410153
551.692051 197.225630 -34.277198
1028.977495 139.629717 -6.673073
198.803919 219.398345 -34.902912
1029.217982 189.239624 -24.197824
-61.313360 190.431956 -5.756668
805.361828 212.678350 -9.199199
-161.461801 23.453121 -26.189885
1029.331110 152.525238 -20.330589
124.352198 231.333112 -36.259170
1029.187656 251.079710 -22.841616
1029.318670 140.222168 -7.695200
592.633111 169.511954 -6.089489
1029.189180 152.203793 -9.786901
1028.984107 199.209111 -10.400203
1029.020630 165.105675 -19.151886
1029.009679 191.458190 -6.372217
1029.190473 154.549839 -27.821762
1029.119299 138.490448 -7.169665
-38.005578 382.760461 -12.604715
1028.992859 189.529076 -21.214293
1029.200837 141.506837 -28.207214
1029.122687 189.627835 -12.980992
1029.110689 230.414989 -7.779148
312.720361 143.190323 -9.709615
1029.067094 190.358882 -21.601804
1029.149717 228.931587 -26.989552
523.241905 48.566721 -35.095444
724.621778 334.460180 -6.591239
1029.126705 199.221430 -20.196635
1028.978204 191.616251 -5.973972
1029.154759 191.002642 -23.581673
1029.118563 166.532241 -28.691753
841.746032 222.395333 -4.214989
1029.114841 139.297521 -11.567960
411.558032 245.110662 -3.276845
1029.136270 191.163161 -23.318089
740.792227 40.994357 -10.650147
1029.105731 205.069380 -15.635904
1028.991614 151.329544 -19.248305
-500.249091 192.929550 -14.960243
372.583227 54.707716 -20.816006
1029.120078 187.702432 -9.310782
1029.163817 184.148452 -21.974278
1029.312471 248.234907 -9.873754
596.542300 140.189100 -33.438495
1029.328978 136.843542 -18.881703
1029.094399 248.978200 -25.149447
1029.222021 229.310936 -11.098716
1029.172426 140.413768 -21.018412
1029.112981 188.285432 -16.581198
1029.118423 167.132526 -29.081801
1029.032436 162.086172 -8.090933
1029.041121 142.217793 -6.243565
1029.236015 251.014534 -17.909152
499.963462 211.944146 -35.225999
616.474529 240.357946 -1.783617
1028.977966 139.590846 -10.513834
1029.013381 155.959542 -27.775785
717.344308 178.646387 -26.538276
377.632953 256.691802 -33.601105
1029.030631 206.195502 -29.210784
1029.020288 191.442614 -6.282925
1029.122752 191.332256 -15.803695
1029.022018 152.098673 -9.721617
1028.979961 185.456998 -7.675500
289.128045 38.488171 -32.345452
1029.034602 250.235039 -24.035320
1028.995501 195.148381 -11.832256
372.583433 59.776160 -12.460715
-121.467536 219.677415 -6.302424
1029.121923 139.486113 -10.572183
1028.993989 138.911566 -6.091481
1029.016906 187.725508 -9.274138
1029.048186 204.788225 -27.515886
1029.281845 164.317919 -10.568704
291.871414 296.393384 -37.782654
846.440224 294.912393 -5.937016
124.720611 228.834840 -36.170854
735.557493 38.829700 -8.731172
400.884835 273.474580 -5.355285
1029.080642 139.809185 -8.448109
692.617468 162.509199 -2.334751
1029.190996 251.339016 -24.093351
823.576133 212.679033 -8.359305
374.948476 240.330201 -12.654021
167.899533 213.926391 -37.120506
1029.091622 188.026010 -8.426024
549.736514 155.204932 -1.574432
1029.233175 246.857364 -23.058501
755.837221 347.209453 -26.199267
1029.182799 226.565878 -26.855878
1029.101006 187.965896 -24.494495
1029.001557 265.025473 -24.043119
1029.035127 184.774956 -22.472807
1029.077783 191.459570 -6.368736
1029.147602 265.728428 -24.808093
1028.979811 266.614511 -21.884949
833.386559 330.342107 -24.128837
89.931389 178.722954 -26.248449
378.075462 7.721897 -0.963226
1029.072314 141.391280 -11.738849
899.100314 119.015494 -5.276006
1029.042814 142.222528 -5.287601
850.851029 290.710618 -6.667062
1002.863329 208.093392 -17.230868
</DataArray>
</Points>
<PointData>
<DataArray NumberOfComponents='1' type='Int32' Name='ParticleType' format='ascii'>
1
1
1
1
1
1
1
1
1
1
1
1
1
1
1
1
1
1
1
1
1
1
1
1
1
1
1
1
1
1
1
1
1
1
1
1
1
1
1
1
1
1
1
1
1
1
1
1
1
1
1
1
1
1
1
1
1
1
1
1
1
1
1
1
1
1
1
1
1
1
1
1
1
1
1
1
1
1
1
1
1
1
1
1
1
1
1
1
1
1
1
1
1
1
1
1
1
1
1
1
1
1
1
1
1
1
1
1
1
1
1
1
1
1
1
1
1
1
1
1
1
1
1
1
1
1
1
1
1
1
1
1
1
1
1
1
1
1
1
1
1
1
1
1
1
1
1
1
1
1
1
1
1
1
1
1
1
1
1
1
1
1
1
1
1
1
1
1
1
1
1
1
1
1
1
1
1
1
1
1
1
1
1
1
1
1
1
1
1
1
1
1
1
1
1
1
1
1
1
1
1
1
1
1
1
1
1
1
1
1
1
1
1
1
1
1
1
1
1
1
1
1
1
1
1
1
1
1
1
1
1
1
1
1
1
1
1
1
1
1
1
1
1
1
1
1
1
1
1
1
1
1
1
1
1
1
1
1
1
1
1
1
1
1
1
1
1
1
1
1
1
1
1
1
1
1
1
1
1
1
1
1
1
1
1
1
1
1
1
1
1
1
1
1
1
1
1
1
1
1
1
1
1
1
1
1
1
1
1
1
1
1
1
1
1
1
1
1
1
1
1
1
1
1
1
1
1
1
1
1
1
1
1
1
1
1
1
1
1
1
1
1
1
1
1
1
1
1
1
1
1
1
1
1
1
1
1
1
1
1
1
1
1
1
1
1
1
1
1
1
1
1
1
1
1
1
1
1
1
1
1
1
1
1
1
1
1
1
1
1
1
1
1
1
1
1
1
1
1
1
1
1
1
1
1
1
1
1
1
1
1
1
1
1
1
1
1
1
1
1
1
1
1
1
1
1
1
1
1
1
1
1
1
1
1
1
1
1
1
1
1
1
1
1
1
1
1
1
1
1
1
1
1
1
1
1
1
1
1
1
1
1
1
1
1
1
1
1
1
1
1
1
1
1
1
1
1
1
1
1
1
1
1
1
1
1
1
1
1
1
1
1
1
1
1
1
1
1
1
1
</DataArray>
<DataArray NumberOfComponents='1' type='Int32' Name='ParticleID' format='ascii'>
0
1
2
3
4
5
6
7
8
9
10
11
12
13
14
15
16
17
18
19
20
21
22
23
24
25
26
27
28
29
30
31
32
33
34
35
36
37
38
39
40
41
42
43
44
45
46
47
48
49
50
51
52
53
54
55
56
57
58
59
60
61
62
63
64
65
66
67
68
69
70
71
72
73
74
75
76
77
78
79
80
81
82
83
84
85
86
87
88
89
90
91
92
93
94
95
96
97
98
99
100
101
102
103
104
105
106
107
108
109
110
111
112
113
114
115
116
117
118
119
120
121
122
123
124
125
126
127
128
129
130
131
132
133
134
135
136
137
138
139
140
141
142
143
144
145
146
147
148
149
150
151
152
153
154
155
156
157
158
159
160
161
162
163
164
165
166
167
168
169
170
171
172
173
174
175
176
177
178
179
180
181
182
183
184
185
186
187
188
189
190
191
192
193
194
195
196
197
198
199
200
201
202
203
204
205
206
207
208
209
210
211
212
213
214
215
216
217
218
219
220
221
222
223
224
225
226
227
228
229
230
231
232
233
234
235
236
237
238
239
240
241
242
243
244
245
246
247
248
249
250
251
252
253
254
255
256
257
258
259
260
261
262
263
264
265
266
267
268
269
270
271
272
273
274
275
276
277
278
279
280
281
282
283
284
285
286
287
288
289
290
291
292
293
294
295
296
297
298
299
300
301
302
303
304
305
306
307
308
309
310
311
312
313
314
315
316
317
318
319
320
321
322
323
324
325
326
327
328
329
330
331
332
333
334
335
336
337
338
339
340
341
342
343
344
345
346
347
348
349
350
351
352
353
354
355
356
357
358
359
360
361
362
363
364
365
366
367
368
369
370
371
372
373
374
375
376
377
378
379
380
381
382
383
384
385
386
387
388
389
390
391
392
393
394
395
396
397
398
399
400
401
402
403
404
405
406
407
408
409
410
411
412
413
414
415
416
417
418
419
420
421
422
423
424
425
426
427
428
429
430
431
432
433
434
435
436
437
438
439
440
441
442
443
444
445
446
447
448
449
450
451
452
453
454
455
456
457
458
459
460
461
462
463
464
465
466
467
468
469
470
471
472
473
474
475
476
477
478
479
480
481
482
483
484
485
486
487
488
489
490
491
492
493
494
495
496
497
498
499
</DataArray>
<DataArray NumberOfComponents='1' type='Int8' Name='IsActive' format='ascii'>
1
0
1
1
0
1
0
0
1
1
0
1
1
1
1
0
0
0
1
0
0
1
0
1
0
0
0
0
1
0
1
1
0
0
0
0
0
0
1
0
0
1
1
0
0
1
1
0
0
1
0
0
0
1
1
0
1
1
0
1
1
0
0
0
0
1
1
0
0
0
0
1
0
0
1
1
0
0
0
1
1
0
0
0
0
1
0
0
0
0
1
0
0
0
0
1
0
0
0
0
0
1
0
1
1
0
0
0
1
0
0
1
1
0
0
0
1
0
1
0
1
0
0
0
0
1
0
0
0
0
1
1
0
0
0
0
0
0
0
1
0
0
1
0
0
0
1
0
0
0
0
0
0
0
0
0
0
1
1
1
1
1
0
0
1
0
0
1
1
1
1
0
0
1
0
0
1
0
0
0
0
0
0
0
1
0
0
0
1
1
0
0
0
0
1
0
0
1
0
0
0
0
1
0
0
0
1
0
0
1
0
0
0
0
0
0
0
0
0
1
0
0
1
0
0
0
1
0
0
0
0
0
1
0
0
1
0
1
1
0
0
0
0
0
0
0
0
0
0
1
0
0
0
0
0
1
0
1
1
1
1
1
0
0
0
0
1
1
0
1
0
1
0
1
0
1
0
0
0
1
0
0
0
0
0
1
0
1
0
0
0
0
0
1
1
0
0
1
0
1
1
0
0
0
1
0
0
0
1
0
0
1
0
0
0
1
0
1
0
1
0
0
1
0
0
0
1
0
0
0
1
1
1
0
1
0
1
0
1
0
0
1
0
0
1
0
1
0
0
0
0
0
1
0
1
1
1
0
0
0
0
0
0
0
1
1
0
1
1
1
0
1
0
0
0
0
0
0
0
0
0
0
1
0
0
0
0
1
0
1
0
1
0
0
0
1
0
1
0
1
0
1
0
1
0
0
1
0
0
0
0
0
0
1
0
0
0
0
1
0
0
1
1
0
0
0
0
1
0
0
0
1
0
0
1
0
0
0
0
1
0
0
0
0
0
0
0
0
0
1
1
0
0
1
1
0
0
0
0
0
1
0
0
0
1
0
0
0
0
0
1
1
1
1
0
0
1
0
0
1
1
0
1
0
1
0
0
0
0
0
0
0
1
1
0
0
1
0
1
1
</DataArray>
<DataArray NumberOfComponents='1' type='Int32' Name='ParticleTetID' format='ascii'>
63146
-61515
632
59563
-58962
18252
-66558
-58952
72686
38215
-66561
98736
25957
62138
62678
-64917
-61508
-68099
52490
-66554
-59783
73352
-58961
81758
-64916
-70586
-61515
-61512
29807
-68100
62897
80155
-68099
-72204
-112396
-72204
-66561
-66555
65282
-66557
-66585
64136
62711
-66560
-69092
9520
85353
-72204
-64920
63075
-64914
-58952
-61515
37240
19262
-61512
63721
11570
-64917
63635
78367
-64914
-68100
-72203
-72213
82654
77093
-64917
-66552
-66551
-66552
23307
-112396
-64916
65161
67424
-72213
-58965
-63131
63112
66548
-72207
-64920
-66554
-58961
64172
-68099
-61515
-66557
-66558
62871
-64917
-72207
-66561
-61515
68419
-172329
-58952
-64919
-66548
-66561
36220
-58962
3808
6363
-58955
-61518
-59786
6343
-66554
-66554
2273
53498
-61518
-70584
-58965
87804
-64914
10802
-61518
94964
-61508
-64917
-66554
-62952
40066
-146594
-63024
-58962
-66560
72469
17029
-64914
-66588
-61518
-59791
-61512
-72207
-112396
17030
-72210
-58965
59488
-61512
-58955
-68096
63693
-58955
-59791
-156163
-66588
-64911
-61515
-58955
-68105
-68099
-66551
49747
69102
75529
67324
60179
-64916
-58958
68618
-72207
-64914
43085
61386
66118
30680
-66560
-58958
69086
-61511
-72203
10690
-61514
-72204
-58958
-72213
-64919
-61512
-68099
98736
-68105
-64919
-68099
59102
12566
-58962
-61518
-59783
-63014
30528
-66558
-59786
66262
-59783
-66560
-58958
-58965
82447
-66557
-66588
-59786
68221
-64914
-66551
15122
-63044
-72207
-64916
-68102
-66561
-59788
-61511
-63015
-61512
100193
-58955
-61518
74318
-61518
-58955
-66551
59932
-84717
-66594
-61512
-66561
-136563
57635
-59785
-66551
61454
-61518
62974
63115
-68099
-66560
-72204
-61521
-61512
-58958
-61518
-63212
-68100
-66585
71726
-72204
-72207
-68103
-68102
-64917
70381
-61518
30163
31029
65287
43694
62912
-66554
-72207
-64913
-66551
86724
19217
-61521
30007
-64920
2213
-61514
43709
-61515
60977
-61517
-59786
-64916
67327
-64920
-64916
-66561
-64920
-61512
58908
-66564
67573
-58961
-58965
-64910
-61512
-58955
19262
52950
-72213
-66551
62384
-61518
7526
79906
-66555
-58952
-126563
67412
-66558
-61514
-68103
57200
-64919
-66561
9466
-68105
-66555
-66551
6229
-61520
64172
-64920
67343
-58965
-58955
62978
-68096
-59791
-72207
56468
-66560
-59786
-61512
65738
55388
63551
-66557
52197
-66557
56084
-58968
62138
-58962
-58955
75542
-66551
-68105
67009
-61518
32850
-58958
-61518
-61512
-61512
-66561
7885
-61515
75259
49690
75407
-68102
-64914
-68105
-58955
-66551
-68100
-58961
66900
66118
-61518
82198
14302
62048
-61518
37406
-61511
-64920
-59788
-61514
-64914
-66548
-61512
-68102
-66557
-66551
63613
-66551
-19215
-112399
-58955
63169
-68102
40810
-64919
7486
-61518
-61512
-66555
77561
-66552
91543
-61518
10441
-62951
7733
-66558
92064
-64920
-66551
64945
-66552
-72203
-59786
-61508
-66561
-66588
1354
-61518
-66560
-61511
-58956
45131
-61518
-58965
63935
69283
-72210
-61509
-61518
-59791
69409
-66551
-126559
-61518
63599
-72207
-66554
2276
-85665
-61512
-61518
-64913
67517
-66591
-64919
-58955
-66557
-61515
-59791
-59782
-66548
-64916
51694
60120
-66551
-66561
63190
82391
-72213
-61508
-61515
-66552
-61512
29389
-64919
-72203
-84632
5401
-66551
-66548
-61512
-72213
-59783
29771
61795
91184
63599
-127033
-66551
59256
-64919
-62952
82987
91823
-61512
58178
-64919
63460
-58965
-61518
-68105
-61518
-61508
-68105
-68106
64091
98736
-153844
-66551
72794
-66548
61797
58400
</DataArray>
<DataArray NumberOfComponents='3' type='Float32' Name='vels' format='ascii'>
0.043865 0.000028 0.000395
2.941750 0.743093 0.251364
0.023329 -0.001796 0.000924
1.531151 -0.089446 0.002857
4.011166 -0.808442 0.007605
0.212797 -0.020784 -0.002153
5.291425 0.658114 0.015048
1.176154 -0.254865 0.050298
0.033202 0.000125 0.000127
1.192651 0.172585 -0.001803
4.043204 0.516567 -0.062035
-0.000207 0.001771 0.000702
0.687171 0.042157 0.005018
0.795896 0.111486 -0.000474
0.033197 0.000082 0.000230
4.781214 -0.633258 0.223552
2.072237 0.492204 0.162694
1.841632 -0.359408 0.096556
0.093582 -0.021147 -0.000818
4.618366 0.202199 0.374453
4.057130 0.583726 0.325260
1.485802 0.379784 0.000747
3.564954 -0.948543 -0.100939
-0.002091 -0.000602 0.000730
5.081494 -0.728568 0.061442
2.709453 -0.571234 0.037044
2.890267 0.733475 0.271122
2.291721 0.555347 0.251364
0.047091 0.036539 -0.000165
0.600488 -0.175699 0.015577
0.169953 -0.000119 -0.000575
0.760772 0.620101 -0.000128
3.213363 -0.761119 -0.003224
1.656845 -0.012767 0.231690
30.832558 8.406263 0.242404
1.694059 0.173883 0.293947
3.361597 0.485264 0.057820
5.072144 0.616756 0.203979
1.705904 0.049655 -0.001890
4.822554 0.159554 -0.071552
0.163137 0.014290 0.007623
0.613939 0.080742 0.001501
0.319769 -0.017452 -0.001003
3.522981 0.454183 -0.022000
1.981235 -0.030602 0.001087
0.022319 0.002287 -0.000001
1.660571 -1.141950 3.511024
1.580142 0.029803 0.349836
5.038774 -0.652624 0.013047
0.370188 0.003343 -0.000145
2.926561 -0.297746 0.581025
1.155041 -0.250378 0.045583
2.831417 0.656188 0.157502
0.282300 -0.207422 0.002486
-0.000815 0.000336 -0.000397
2.459462 0.587685 0.168515
0.796233 -0.160733 0.001233
0.311112 0.001073 -0.000285
4.325011 -0.485807 0.474073
0.322176 0.093709 -0.000817
3.039584 0.703224 -0.004780
3.009809 -0.323029 0.523657
2.087373 -0.571330 0.004354
2.169836 0.361286 0.178099
1.625300 0.032475 -0.102624
0.001236 0.005879 -0.030799
0.606297 0.045867 0.000230
4.340364 -0.231916 0.365021
3.114425 0.129711 0.500337
4.121013 0.480241 0.104173
3.314428 0.340714 0.441299
0.269240 0.349656 0.015465
46.675339 14.517866 -0.076229
4.966831 -0.741021 0.103249
1.039651 -0.026348 -0.000616
0.242347 0.000975 0.000229
1.666596 0.213651 -0.091226
4.058145 -0.762731 -0.344492
1.889371 0.057292 0.002064
0.062799 0.000226 0.000316
1.334434 0.129935 0.214552
2.447300 0.404613 0.136695
4.955756 -0.666599 0.026369
5.270291 0.597518 0.093265
3.790543 -0.755850 0.004429
0.754763 0.102539 -0.000073
3.198346 -0.576469 0.091015
2.891380 0.658313 0.072510
4.708169 0.714293 0.041555
5.286538 0.662013 0.016323
0.138965 0.003005 0.000488
4.335292 -0.493674 0.469468
2.376679 0.415278 0.303110
3.978817 0.514039 -0.035953
2.925429 0.736889 0.253986
0.517332 0.042561 0.000090
16.443892 0.216408 0.432539
1.565890 -0.337596 0.089770
4.657912 -0.665986 -0.017331
0.402313 0.016930 0.069481
4.122142 0.520750 -0.092827
0.371329 0.346357 -0.000380
4.068510 -0.838672 0.002245
-0.003632 -0.000004 -0.001045
1.495793 0.224757 0.000193
3.529941 -0.711878 0.030954
2.701473 0.675651 0.006233
5.068028 0.739679 0.098900
0.037672 0.006107 -0.000323
5.282705 0.607003 0.090999
4.672356 0.220515 0.340548
0.000812 0.001928 0.001234
0.205624 -0.136638 0.001740
2.719856 0.689432 0.014472
1.875758 -0.371275 0.170103
3.526443 -0.813141 -0.314200
-0.003473 -0.001641 0.000982
2.977139 -0.317598 0.549789
0.011246 0.000353 0.002176
2.856396 0.655576 -0.021302
1.087362 -2.513091 0.055910
1.562766 0.369950 0.099079
5.097804 -0.739710 -0.004191
5.187976 0.534039 0.131804
2.184550 -0.057329 -0.002896
-0.006138 -0.003748 -0.000066
0.063052 -0.112684 0.126129
0.384938 -0.001348 0.000332
3.941319 -0.939718 0.019078
3.094111 0.466580 0.051646
1.035655 0.072225 -0.000029
0.192458 0.000638 -0.000276
2.947628 -0.317004 0.559127
3.315421 0.229466 0.303735
3.114699 0.812712 -0.006021
3.981705 0.784788 -0.179278
2.397503 0.576482 0.045044
2.262234 -0.103763 0.199135
46.605008 17.425592 -0.121316
0.018558 0.000036 -0.000367
2.453705 0.036037 -0.002453
3.273935 -0.703619 -0.146819
1.391159 -0.140894 -0.000686
2.267504 0.537684 0.170558
3.031390 -0.650702 0.168210
0.798581 -0.043527 0.108054
1.621443 0.466258 -0.000556
3.485382 -0.705401 0.047642
4.244217 0.718171 -0.088138
0.078912 -0.035162 -0.038296
3.309975 0.272851 0.268077
0.028963 -0.002091 0.012138
3.143853 0.750221 0.009430
3.065246 -0.673178 0.198509
4.241233 -0.744797 0.007929
2.531490 -0.450644 0.122602
3.991307 0.425104 0.155119
0.563898 -4.239511 -0.053151
0.154941 0.140897 -0.000430
0.188360 -0.058365 0.000692
0.295162 0.000066 -0.000401
3.657905 -0.998825 0.015678
4.864729 -0.743999 0.144699
4.023324 -0.834694 0.046985
0.126356 0.000072 -0.000391
2.333838 0.209392 0.090805
2.983754 -0.330680 0.536378
0.016576 -0.009751 0.007414
0.004177 -0.000002 0.000963
0.451399 0.130931 -0.000202
0.685623 1.062147 0.000350
2.912069 0.446903 0.058844
4.195891 -0.823559 0.007726
0.036774 0.000011 0.003608
3.421469 0.801853 0.232091
1.914013 0.373947 0.333840
-0.002253 -0.000054 0.000114
3.917611 0.961390 0.066384
1.535828 0.082314 0.421986
3.998002 -0.839101 0.052347
2.110943 0.365026 -0.216448
4.558290 -0.718325 -0.153658
2.517882 0.602668 0.087560
2.602964 -0.618944 0.038887
-0.005934 0.003912 -0.000110
3.746715 -0.624846 0.010220
4.537418 -0.639668 -0.001990
2.525898 -0.494562 0.096555
1.510082 0.078238 0.000752
0.061066 -0.000364 0.000388
4.022468 -0.876011 0.007542
3.114020 0.835475 0.004567
4.032579 0.575637 0.282121
1.501351 -0.039478 -0.000088