<VTKFile type='UnstructuredGrid' version='1.0' byte_order='LittleEndian' header_type='UInt64'>
<UnstructuredGrid>
<Piece NumberOfCells='500' NumberOfPoints='500'>
<Points>
<DataArray NumberOfComponents='3' type='Float32' Name='Position' format='ascii'>
-127.156735 235.938159 -4.876716
456.908797 75.044565 -16.401950
-428.182199 297.614919 -6.344795
-213.770463 269.937793 -10.282433
503.756811 256.183554 -20.306729
-348.901727 142.626836 -2.013623
435.053721 34.817107 -8.671952
-82.309481 323.660883 -7.283717
-137.599628 234.681310 -5.161545
-282.857572 257.703983 -4.829172
78.110931 201.582757 -32.445093
-309.027547 63.303815 -29.900685
-313.930597 220.504472 -6.090639
-171.807346 137.090418 -3.969435
45.832421 245.258864 -6.829455
327.256196 317.810659 -16.077233
304.475013 143.214485 -9.154604
237.363387 269.633127 -14.573050
-359.502366 281.726144 -6.406020
328.510844 28.792889 -21.227639
551.367372 104.390082 -12.952341
-148.263418 46.833246 -4.343396
505.372277 252.633933 -26.196532
-9.176964 355.153580 -15.714691
337.064889 315.881722 -19.295973
507.012337 216.779946 -16.531803
-258.183135 213.122679 -23.750234
489.986243 101.416794 -9.068148
-196.932244 327.979936 -37.543340
-3.649377 323.713598 -7.062172
505.115521 200.676731 -14.069112
-212.694954 154.513385 -2.577488
76.764445 301.525868 -11.518028
338.206383 243.576377 -11.564486
-347.968587 317.600233 -19.596670
238.116449 197.705772 -9.039256
459.318267 42.567692 -26.560314
495.355514 49.929959 -16.698722
74.910087 222.189131 -30.844526
119.707991 172.203875 -28.026806
-20.434064 79.481413 -7.149436
-143.630291 144.575316 -4.032931
-156.456795 144.002058 -37.037461
-54.003354 31.591914 -32.424277
505.999849 203.024645 -18.517813
-396.360403 216.019806 -37.728375
-177.258189 58.417325 -35.261578
499.684532 207.810788 -9.932150
290.266942 309.959948 -22.500450
315.080294 225.648420 -9.814033
317.531129 301.348679 -13.515827
-148.498304 251.307070 -6.490019
483.323816 101.506546 -17.283503
-199.242114 329.981644 -37.299738
-497.079548 188.190621 -1.956082
40.937019 213.231915 -8.012739
-156.280435 338.855395 -5.607863
-486.645490 182.862504 -32.460051
330.306592 311.212833 -20.588590
26.259343 119.502090 -14.323635
-196.659667 140.678271 -34.083565
317.702660 293.191975 -13.726477
-20.279417 362.601240 -10.199785
317.750531 210.099790 -10.617997
253.572548 213.646594 -31.736310
-223.173837 254.621759 -37.425110
-29.263088 194.443911 -32.636853
320.203662 324.747229 -19.906742
40.813374 167.237035 -9.051676
333.267011 33.599001 -14.242601
-57.927484 95.787630 -14.243775
-382.395433 184.059618 -35.280622
79.998267 309.457436 -21.773167
336.916309 302.380558 -25.096611
-177.886640 240.466145 -3.042220
-190.070710 226.846333 -32.702153
308.031285 225.796949 -29.618391
317.383403 250.398480 -28.519869
492.571459 208.529879 -11.381313
360.908876 236.673748 -14.589781
-307.915444 139.756842 -6.667669
476.617607 211.985521 -13.633528
242.053114 245.357428 -27.864363
351.951294 30.077628 -16.788387
503.531903 250.419317 -23.023862
-172.079199 137.377609 -3.669252
44.703432 314.477174 -11.851815
473.958094 92.360317 -16.038847
307.305875 87.929059 -22.512823
499.261061 51.165749 -22.021745
-188.236978 233.361351 -35.299213
341.252481 312.222557 -20.504360
461.031469 222.081069 -12.783872
84.561817 200.214350 -32.117327
370.677249 62.645070 -6.994324
-235.609210 231.516540 -2.636300
-265.649701 221.692517 -2.390234
-93.463247 281.867449 -10.091336
94.245098 251.276370 -30.801429
43.179662 175.324106 -9.465604
146.633977 179.222598 -31.877906
-312.386383 332.861196 -12.077412
-197.562875 309.632840 -23.296407
-433.122686 176.950028 -26.654081
-401.758050 244.478183 -19.743603
320.317441 259.989997 -13.310744
-254.100881 178.187821 -24.295945
562.200749 115.286535 -17.874799
-401.664884 243.765802 -19.949056
134.197149 162.009247 -20.787188
351.198065 29.167778 -20.949048
-502.465827 192.170890 -10.210016
-161.083228 354.076539 -3.382929
-32.727959 204.400391 -23.233032
58.921517 243.002415 -7.135876
152.724543 199.896011 -32.002256
318.843872 191.294693 -25.484895
257.872772 269.026288 -13.184684
-438.102206 297.019865 -5.974180
-148.037013 214.122154 -27.204789
-239.400441 52.991524 -35.947477
-44.076436 170.951288 -6.748993
291.549999 311.347746 -15.143650
304.593309 92.602451 -18.190115
331.073600 238.807849 -10.567642
-182.296111 346.244182 -33.909230
-176.046035 123.077625 -17.763990
315.701045 227.630137 -10.057988
115.958538 214.842072 -23.650869
-1.576070 127.845078 -32.395842
-284.941189 97.140028 -4.760440
-391.399243 212.165435 -4.779550
332.608064 301.736177 -13.844393
300.679313 58.840293 -16.288368
26.035331 216.680622 -27.066366
279.181845 191.244504 -30.909766
-23.736214 202.261615 -9.150101
495.077227 212.423351 -17.563728
27.494917 324.556780 -23.393358
-413.233912 210.407973 -3.341610
329.933654 218.462310 -20.374478
221.296130 204.795554 -30.832801
50.659381 213.808029 -32.403361
507.870119 131.053386 -9.239801
518.540780 250.064310 -11.810180
30.637327 320.511113 -11.155298
0.380883 67.070897 -23.565907
307.403030 254.070916 -12.028243
224.156514 183.578546 -31.438619
154.861312 186.883855 -32.768461
111.344234 178.355269 -13.393991
112.177609 234.145393 -8.161539
514.159471 142.396236 -14.065371
368.427314 266.854932 -13.408875
123.149327 232.309434 -24.625333
-396.243606 304.201502 -13.311043
-1.679307 65.989811 -14.825063
-376.914067 181.587178 -32.704529
-234.641795 223.184054 -2.914736
-282.785403 220.998595 -5.419424
345.264896 247.308199 -11.692331
-386.446110 307.110821 -13.306464
315.701884 293.743779 -25.237232
-214.375777 302.119324 -21.697937
-139.612860 56.591349 -6.665932
341.921567 247.551047 -11.989347
244.206154 240.009249 -11.674224
315.916965 183.417625 -24.999412
22.656668 113.420439 -14.136181
-29.209714 30.287619 -13.939129
-403.354416 307.811013 -19.476102
-24.936101 123.150044 -28.900537
534.941058 254.844286 -16.126688
-88.440243 258.261065 -6.769512
238.626510 193.288317 -15.116839
328.465257 226.571251 -12.088255
-521.714501 274.563383 -37.117814
313.861918 183.343416 -20.404691
347.307804 251.069308 -10.862104
543.949216 256.620753 -17.483426
372.924106 241.259068 -19.892182
88.028604 260.216708 -32.047317
79.610993 209.274497 -7.804815
147.080989 215.531123 -11.836729
-101.189484 19.753230 -26.989062
258.283736 306.558010 -25.804297
256.541949 263.992548 -27.372080
-196.181595 365.159737 -17.575945
-353.757079 176.863230 -19.985751
-364.374530 276.301670 -3.090949
-209.326611 309.185430 -24.568711
237.190890 191.437449 -29.404010
542.859989 93.469991 -12.259444
362.683222 250.280050 -25.660337
-200.637034 336.711390 -2.798393
348.127227 47.974444 -25.361864
570.991117 121.568890 -18.192877
50.752892 155.824148 -15.381967
422.748896 50.753437 -3.268933
-3.765034 127.867976 -32.811373
527.945856 249.640494 -19.885573
267.897223 236.249693 -28.052554
-161.153941 350.562677 -34.810563
207.081310 177.090651 -30.673996
-8.572864 62.809926 -10.629837
569.009134 117.014322 -17.815118
-225.479590 80.852330 -4.891518
-38.681087 303.637103 -12.578627
454.922545 22.671838 -10.722420
-426.987603 183.398133 -2.250967
511.500032 200.763590 -16.880326
520.979733 209.844960 -15.433110
320.106977 303.189232 -19.769635
284.369363 332.555523 -21.209271
7.595388 122.669493 -31.998239
552.890765 101.498001 -20.727375
290.194112 195.281539 -15.089976
308.761508 228.078844 -29.542780
336.853150 80.795111 -12.589149
-233.261468 47.396582 -34.493802
493.205031 248.368449 -12.351121
-306.160083 181.811970 -29.838166
-269.827973 89.381130 -34.268909
323.120283 109.301618 -23.001912
534.834895 252.356841 -11.926762
-15.761508 57.260755 -19.689139
287.628176 211.323381 -28.690256
-188.992119 222.551113 -36.000935
0.419743 69.122259 -24.023351
-54.218777 191.661203 -8.613140
39.276459 189.927481 -29.624850
-180.536068 254.649562 -3.354996
-153.057714 231.568900 -36.075744
481.162826 59.557666 -15.118833
-88.852607 28.927855 -13.406290
-161.777725 370.310332 -6.919059
330.775538 86.771252 -24.044582
-314.400410 223.352104 -33.178528
-127.439643 224.151332 -18.826854
48.042385 309.446209 -8.504661
-187.391323 61.750021 -34.655722
94.343374 216.729223 -7.434117
37.425802 215.558679 -28.880533
287.887880 197.931328 -11.069338
530.807774 251.433610 -19.052911
-280.129922 213.335805 -29.524365
239.346770 202.684134 -31.520695
40.072141 323.348924 -14.581836
-41.393092 71.679244 -6.796164
-221.475686 126.644231 -34.741834
309.282366 221.947145 -9.662185
522.990340 204.616218 -16.592355
183.554746 217.937973 -15.846323
118.609132 249.675594 -21.183516
303.779570 323.890515 -18.353701
-238.545751 172.413595 -4.885033
-104.590103 220.314978 -23.946898
-382.462825 316.211021 -31.678023
-328.176446 288.952172 -36.980025
-7.273202 237.823867 -6.707282
318.842561 189.856038 -17.474653
-173.868525 239.530352 -3.466663
455.528546 24.674106 -16.497554
501.898675 200.547933 -14.968024
354.553709 293.852705 -15.690309
433.938013 19.697766 -2.822945
-205.947048 168.559161 -36.840170
-498.612908 188.454725 -24.266003
301.633008 174.599493 -28.103930
-307.127372 257.781112 -3.897356
319.382983 309.772867 -25.308789
-405.825389 126.193596 -35.995554
520.605239 122.404492 -19.420454
-238.324158 174.313451 -12.686155
498.129179 121.111452 -16.353421
-336.717490 176.346501 -26.589635
83.627338 211.108103 -27.818016
537.547088 93.549122 -19.570209
326.597984 303.826960 -22.690440
466.852594 227.939528 -17.939917
319.520448 310.861152 -26.308992
337.766507 303.192071 -25.099258
1.810941 127.094117 -32.169994
294.705062 312.704426 -22.787505
40.975568 215.096354 -9.696732
-271.428555 131.651927 -34.428937
133.380124 170.502104 -28.495982
-201.371856 354.144314 -4.360634
174.038368 203.236926 -27.179472
-243.978566 260.933980 -32.173386
88.559187 259.783692 -7.892030
497.099227 110.629677 -9.303793
549.451842 254.145361 -13.362156
-502.919299 192.788337 -4.582988
-300.452066 73.455763 -33.854533
236.349419 203.406750 -32.012626
443.360793 20.196973 -6.691143
-281.098394 135.708267 -32.085037
81.777253 216.479809 -21.608282
-444.787134 211.507420 -4.685824
-311.710140 215.987763 -12.631855
-14.819388 132.791815 -24.352515
-35.010801 294.835591 -8.274549
411.591621 245.039275 -3.410562
19.170875 236.993807 -6.729413
239.681091 185.764207 -31.981924
446.082663 70.836303 -15.396469
-337.148718 318.714856 -19.968922
-251.141301 87.480124 -33.588848
216.073584 218.837653 -27.777685
280.806646 181.790716 -29.793759
-437.774059 212.002749 -36.560191
-366.370601 307.665093 -26.670068
374.317142 32.313104 -4.745040
354.157450 26.426004 -10.981699
-377.617885 212.719426 -3.934768
162.094794 185.668513 -31.769123
-149.995013 149.140802 -3.842578
336.115507 303.732159 -20.869953
458.105346 229.850832 -8.925046
207.404667 200.650349 -32.362790
320.664253 259.065074 -11.990472
112.082646 205.551932 -32.320155
-14.396437 352.499900 -9.971468
-212.038702 174.237206 -35.563386
524.762176 208.308141 -15.841629
-171.322392 163.962840 -3.562602
-17.060308 68.952084 -32.579986
557.735438 106.886233 -18.263528
270.797135 199.996926 -12.510419
-292.998920 217.220946 -2.894825
-300.634858 176.703606 -5.337901
-26.052766 42.507593 -31.152258
258.273862 172.313073 -27.251726
-193.146043 232.345381 -37.733898
225.368109 163.091029 -27.318182
-138.195806 223.532235 -31.390541
147.491193 195.550135 -33.072688
-136.302717 139.306267 -5.977360
527.056078 253.246938 -21.613869
297.858438 249.328417 -11.104790
-317.503204 218.208387 -32.625914
126.865183 171.617117 -13.367837
-7.777836 343.603031 -27.794689
-229.010274 75.867700 -34.175066
60.754212 214.663940 -27.242916
-244.946760 329.722267 -2.528094
-224.233269 262.277807 -19.576175
29.855514 225.336910 -28.415857
21.428373 227.049889 -8.884862
486.811487 98.704685 -9.396614
9.245959 131.267540 -31.785795
-426.210467 299.729676 -6.699659
-128.704180 174.626780 -17.482468
-109.460665 355.918882 -6.051628
-391.798731 217.016911 -26.606247
-63.643951 21.460531 -8.738208
277.228688 323.009082 -18.845991
94.744502 251.625987 -8.186753
76.936581 284.145399 -31.945755
507.224974 246.872489 -11.132758
450.409102 23.934602 -9.935254
48.855722 313.719231 -9.189803
502.376619 253.713521 -24.594318
-325.942974 72.589149 -32.004853
-12.576219 40.864305 -14.511677
-301.739813 209.887759 -28.130339
-165.448316 267.584306 -35.826698
-317.748637 138.016073 -26.395765
138.966204 180.512129 -7.732838
-278.669692 212.674306 -29.351341
-314.111229 218.221506 -5.537028
473.111140 84.419583 -11.823271
82.591722 263.686475 -32.741373
563.046126 113.653819 -20.543811
-257.759792 211.311305 -22.509537
241.944300 254.461796 -11.226193
-52.324301 68.200587 -6.781585
166.657226 185.890394 -10.866219
274.765611 315.596981 -17.309686
342.768234 30.016384 -21.311430
130.536252 170.869543 -10.912915
-43.722064 35.930626 -7.851140
143.004517 171.527094 -13.015946
-502.030223 193.337508 -17.454045
200.135680 217.449203 -24.408211
305.825446 258.516819 -15.141810
500.907278 202.137443 -19.666796
117.930505 257.501206 -24.067808
-294.849375 59.302897 -11.399469
118.450563 225.615062 -29.718372
-472.957075 212.206640 -37.788615
466.298793 83.491112 -20.566514
-174.958727 176.095797 -10.645817
295.662056 141.303765 -18.846881
-159.039348 239.766124 -34.340910
2.809194 128.542864 -8.008276
-215.433105 359.964736 -34.956532
43.062932 213.731240 -26.151895
-389.092435 180.084548 -5.316630
489.701551 213.097473 -11.091906
-418.797160 97.317754 -26.467485
-210.110277 86.827221 -23.820552
-200.928394 359.909676 -35.975093
266.246298 273.559518 -27.013301
18.206763 141.702176 -8.378899
129.109912 196.690978 -8.081993
458.255463 37.748680 -9.160414
308.293435 211.442675 -10.160662
565.445232 111.991096 -18.842235
-113.515079 175.232501 -7.661149
62.438479 200.645629 -31.173138
-31.023561 45.372123 -13.118418
-442.336838 296.219230 -13.070231
499.112938 119.459466 -21.376319
-92.879433 33.567853 -33.145774
319.448163 109.277992 -17.053834
-224.757774 307.802136 -11.588521
-281.665251 213.564317 -11.234153
498.408936 119.205670 -21.708405
-7.176848 269.773422 -30.481994
-159.614906 52.129110 -35.831846
35.472804 299.165237 -7.006810
478.239429 211.587984 -20.324770
-42.508219 199.066332 -9.523127
27.811212 225.774096 -29.567645
443.900604 50.284391 -21.501557
-102.326368 244.258316 -5.951554
303.722461 68.364897 -14.273964
393.456725 253.261137 -4.789845
-80.502285 180.186808 -28.416696
-21.410929 38.413166 -10.591467
521.341935 206.383216 -15.070013
-196.782065 122.137667 -23.569889
-502.113893 193.949191 -18.113764
-225.738572 222.698308 -36.218830
282.780152 198.441767 -10.747603
334.361248 85.428320 -24.683477
362.801467 291.022169 -16.530766
-209.026289 168.451194 -35.412305
335.357162 30.499591 -19.942731
-249.812073 305.050972 -31.729884
540.424955 254.397418 -11.751368
349.701254 29.438602 -21.775002
-316.749316 184.273538 -22.315416
266.023350 193.255611 -31.232857
205.524959 177.353262 -9.548379
41.967118 171.097038 -9.221478
334.208628 303.854173 -21.885433
-173.031792 239.369046 -37.081257
-172.148027 252.791160 -3.062993
129.652069 170.476471 -11.496803
147.532865 180.194310 -32.922099
-133.896529 179.968591 -26.965453
-191.380102 239.981849 -36.836801
250.178705 211.663002 -31.825543
-133.758767 156.217514 -6.317879
357.026723 66.307954 -14.129530
436.321212 34.551886 -3.709862
-70.273087 174.888094 -7.402920
-331.058064 73.444946 -32.073138
94.818215 252.744200 -31.413031
306.502403 215.537296 -12.409943
-154.015382 224.998211 -35.391397
-349.337677 216.999821 -5.740602
44.132590 149.533679 -14.491735
-16.821655 81.204079 -7.373125
493.255406 107.241501 -9.808897
-166.575641 249.833504 -35.034113
301.288010 138.272750 -11.591215
-203.328351 326.765110 -37.667458
21.451918 289.835765 -6.796365
-217.752672 351.830130 -35.882384
-87.724232 17.075609 -8.561422
239.411448 226.017051 -24.159079
49.143704 175.051342 -9.347959
-146.500008 160.965814 -3.735099
77.449400 272.011216 -32.556005
317.719812 221.905692 -10.147761
-352.607434 212.832001 -19.388847
-233.793509 343.531000 -37.388755
291.123341 190.525556 -9.092547
-217.386045 168.196423 -3.179340
290.081384 282.850918 -27.340898
39.028272 314.707773 -30.365237
501.951616 247.983616 -26.591478
-279.861093 212.997606 -29.622579
46.871583 312.948223 -30.219729
-290.557200 181.528821 -29.508336
70.647575 222.511480 -9.805699
238.820442 289.545194 -25.664609
228.750965 250.350061 -21.750239
-7.449654 343.551225 -27.454155
-42.624056 25.017817 -29.696353
-153.712106 32.175140 -13.049200
304.708218 81.681349 -14.060747
-230.086202 125.197734 -9.658660
58.285003 184.756330 -9.348885
-213.990802 306.931299 -10.124811
518.185086 201.195242 -17.578434
</DataArray>
</Points>
<PointData>
<DataArray NumberOfComponents='1' type='Int32' Name='ParticleType' format='ascii'>
1
1
1
1
1
1
1
1
1
1
1
1
1
1
1
1
1
1
1
1
1
1
1
1
1
1
1
1
1
1
1
1
1
1
1
1
1
1
1
1
1
1
1
1
1
1
1
1
1
1
1
1
1
1
1
1
1
1
1
1
1
1
1
1
1
1
1
1
1
1
1
1
1
1
1
1
1
1
1
1
1
1
1
1
1
1
1
1
1
1
1
1
1
1
1
1
1
1
1
1
1
1
1
1
1
1
1
1
1
1
1
1
1
1
1
1
1
1
1
1
1
1
1
1
1
1
1
1
1
1
1
1
1
1
1
1
1
1
1
1
1
1
1
1
1
1
1
1
1
1
1
1
1
1
1
1
1
1
1
1
1
1
1
1
1
1
1
1
1
1
1
1
1
1
1
1
1
1
1
1
1
1
1
1
1
1
1
1
1
1
1
1
1
1
1
1
1
1
1
1
1
1
1
1
1
1
1
1
1
1
1
1
1
1
1
1
1
1
1
1
1
1
1
1
1
1
1
1
1
1
1
1
1
1
1
1
1
1
1
1
1
1
1
1
1
1
1
1
1
1
1
1
1
1
1
1
1
1
1
1
1
1
1
1
1
1
1
1
1
1
1
1
1
1
1
1
1
1
1
1
1
1
1
1
1
1
1
1
1
1
1
1
1
1
1
1
1
1
1
1
1
1
1
1
1
1
1
1
1
1
1
1
1
1
1
1
1
1
1
1
1
1
1
1
1
1
1
1
1
1
1
1
1
1
1
1
1
1
1
1
1
1
1
1
1
1
1
1
1
1
1
1
1
1
1
1
1
1
1
1
1
1
1
1
1
1
1
1
1
1
1
1
1
1
1
1
1
1
1
1
1
1
1
1
1
1
1
1
1
1
1
1
1
1
1
1
1
1
1
1
1
1
1
1
1
1
1
1
1
1
1
1
1
1
1
1
1
1
1
1
1
1
1
1
1
1
1
1
1
1
1
1
1
1
1
1
1
1
1
1
1
1
1
1
1
1
1
1
1
1
1
1
1
1
1
1
1
1
1
1
1
1
1
1
1
1
1
1
1
1
1
1
1
1
1
1
1
1
1
1
1
1
1
1
1
1
1
1
1
1
1
1
1
1
1
1
1
1
1
1
</DataArray>
<DataArray NumberOfComponents='1' type='Int32' Name='ParticleID' format='ascii'>
0
1
2
3
4
5
6
7
8
9
10
11
12
13
14
15
16
17
18
19
20
21
22
23
24
25
26
27
28
29
30
31
32
33
34
35
36
37
38
39
40
41
42
43
44
45
46
47
48
49
50
51
52
53
54
55
56
57
58
59
60
61
62
63
64
65
66
67
68
69
70
71
72
73
74
75
76
77
78
79
80
81
82
83
84
85
86
87
88
89
90
91
92
93
94
95
96
97
98
99
100
101
102
103
104
105
106
107
108
109
110
111
112
113
114
115
116
117
118
119
120
121
122
123
124
125
126
127
128
129
130
131
132
133
134
135
136
137
138
139
140
141
142
143
144
145
146
147
148
149
150
151
152
153
154
155
156
157
158
159
160
161
162
163
164
165
166
167
168
169
170
171
172
173
174
175
176
177
178
179
180
181
182
183
184
185
186
187
188
189
190
191
192
193
194
195
196
197
198
199
200
201
202
203
204
205
206
207
208
209
210
211
212
213
214
215
216
217
218
219
220
221
222
223
224
225
226
227
228
229
230
231
232
233
234
235
236
237
238
239
240
241
242
243
244
245
246
247
248
249
250
251
252
253
254
255
256
257
258
259
260
261
262
263
264
265
266
267
268
269
270
271
272
273
274
275
276
277
278
279
280
281
282
283
284
285
286
287
288
289
290
291
292
293
294
295
296
297
298
299
300
301
302
303
304
305
306
307
308
309
310
311
312
313
314
315
316
317
318
319
320
321
322
323
324
325
326
327
328
329
330
331
332
333
334
335
336
337
338
339
340
341
342
343
344
345
346
347
348
349
350
351
352
353
354
355
356
357
358
359
360
361
362
363
364
365
366
367
368
369
370
371
372
373
374
375
376
377
378
379
380
381
382
383
384
385
386
387
388
389
390
391
392
393
394
395
396
397
398
399
400
401
402
403
404
405
406
407
408
409
410
411
412
413
414
415
416
417
418
419
420
421
422
423
424
425
426
427
428
429
430
431
432
433
434
435
436
437
438
439
440
441
442
443
444
445
446
447
448
449
450
451
452
453
454
455
456
457
458
459
460
461
462
463
464
465
466
467
468
469
470
471
472
473
474
475
476
477
478
479
480
481
482
483
484
485
486
487
488
489
490
491
492
493
494
495
496
497
498
499
</DataArray>
<DataArray NumberOfComponents='1' type='Int8' Name='IsActive' format='ascii'>
1
1
1
1
1
1
1
1
1
1
1
1
1
1
1
1
1
1
1
1
1
1
1
1
1
1
1
1
1
1
1
1
1
1
1
1
1
1
1
1
1
1
1
1
1
1
1
1
1
1
1
1
1
1
1
1
1
1
1
1
1
1
1
1
1
1
1
1
1
1
1
1
1
1
1
1
1
1
1
1
1
1
1
1
1
1
1
1
1
1
1
1
1
1
1
1
1
1
1
1
1
1
1
1
1
1
1
1
1
1
1
1
1
1
1
1
1
1
1
1
1
1
1
1
1
1
1
1
1
1
1
1
1
1
1
1
1
1
1
1
1
1
1
1
1
1
1
1
1
1
1
1
1
1
1
1
1
1
1
1
1
1
1
1
1
1
1
1
1
1
1
1
1
1
1
1
1
1
1
1
1
1
1
1
1
1
1
1
1
1
1
1
1
1
1
1
1
1
1
1
1
1
1
1
1
1
1
1
1
1
1
1
1
1
1
1
1
1
1
1
1
1
1
1
1
1
1
1
1
1
1
1
1
1
1
1
1
1
1
1
1
1
1
1
1
1
1
1
1
1
1
1
1
1
1
1
1
1
1
1
1
1
1
1
1
1
1
1
1
1
1
1
1
1
1
1
1
1
1
1
1
1
1
1
1
1
1
1
1
1
1
1
1
1
1
1
1
1
1
1
1
1
1
0
1
1
1
1
1
1
1
1
1
1
1
1
1
1
1
1
1
1
1
1
1
1
1
1
1
1
1
1
1
1
1
1
1
1
1
1
1
1
1
1
1
1
1
1
1
1
1
1
1
1
1
1
1
1
1
1
1
1
1
1
1
1
1
1
1
1
1
1
1
1
1
1
1
1
1
1
1
1
1
1
1
1
1
1
1
1
1
1
1
1
1
1
1
1
1
1
1
1
1
1
1
1
1
1
1
1
1
1
1
1
1
1
1
1
1
1
1
1
1
1
1
1
1
1
1
1
1
1
1
1
1
1
1
1
1
1
1
1
1
1
1
1
1
1
1
1
1
1
1
1
1
1
1
1
1
1
1
1
1
1
1
1
1
1
1
1
1
1
1
1
1
1
1
1
1
1
1
1
1
1
1
1
1
1
1
1
1
1
1
1
1
1
1
1
1
1
</DataArray>
<DataArray NumberOfComponents='1' type='Int32' Name='ParticleTetID' format='ascii'>
919
55140
3943
8446
64719
6050
87150
19911
919
6356
35491
7646
7454
8893
25887
27384
26465
48372
5726
36443
79816
19711
64720
22706
33865
64754
7553
52149
5704
11523
64824
2612
29217
40306
8036
24681
55108
52514
33800
48000
1299
5942
20932
15476
64826
11950
2447
52223
29763
32043
36834
721
53880
5705
19208
31917
5978
10850
37071
48392
2031
36834
20506
37409
32448
10798
661
29203
37210
31830
5136
16162
27657
30323
290
3181
27428
30794
52042
42360
6843
55572
25340
47042
64720
8892
26051
51864
95090
52517
3183
33867
56165
40440
84649
15644
9486
20686
35041
40883
34286
8051
8974
3808
2006
34078
7283
69019
2006
40599
26920
2273
4862
45
28191
33835
51040
32548
12025
13530
15928
23799
29760
92804
36921
1437
8792
32043
25713
11371
6554
15428
30318
33054
31368
42259
41
51685
44219
16256
48429
36986
35024
74289
70402
24898
28343
27617
35382
36715
47976
27669
74294
44340
89587
5584
10520
1075
9416
9523
27975
10120
33887
7193
8911
40306
25330
49762
48390
18546
3589
22118
67561
5331
26486
42844
10690
49761
34635
79062
42271
31603
34671
92385
16986
29674
32556
7820
13165
5726
7193
26492
76415
33580
5690
32158
79207
45996
158760
11371
70405
31730
5667
27751
19731
76813
11234
10642
54472
3800
64824
64896
28052
29655
30865
79821
33415
32648
41296
9647
52654
9337
17747
43605
79061
18673
27481
9521
28343
21657
33080
1945
1673
52784
2760
13431
43858
7466
2078
26051
9017
35085
30702
27473
79064
7430
24691
41352
22611
8783
34924
64896
88224
40149
29635
7290
22006
6152
6641
6249
45080
290
54475
64826
32138
87178
2626
19217
26580
6428
28054
2213
78667
7295
51577
11873
35492
80143
37072
52190
28054
30323
30865
34337
30693
6909
48036
792
25572
6386
31593
52115
76056
2270
21453
24692
53535
6818
33795
11414
7457
10487
10641
-126563
26661
26491
55392
9835
8511
36462
43842
3922
7986
151132
47003
5276
39199
20918
30321
53033
34699
34078
42655
2793
9411
64898
9074
3578
73825
36760
7434
9325
1706
42476
3184
31656
2084
38695
5942
79301
27616
7465
48012
19614
13391
35022
12008
6451
31370
26661
52149
30505
4125
13040
4879
15436
13199
29726
35031
29857
66352
54221
26051
64720
10003
1986
7448
5380
6760
27527
7430
7454
52060
31603
63999
7553
24809
20471
35285
29455
32681
48027
15393
26032
2276
89038
27620
64825
48071
7601
40064
12562
51435
7385
38257
1653
30857
9863
30700
16022
52042
4600
6509
9861
35274
31090
34097
55101
34925
77173
12081
44186
1156
12028
51581
11137
49652
8986
7420
51581
5864
1187
36003
55575
17177
31370
53559
10459
25458
127228
22908
1985
64896
8848
2276
9429
36759
41303
33542
2625
31831
6746
79061
32680
7247
32899
27742
37210
30321
305
5508
40575
34285
13044
3183
25286
15085
37788
87265
21315
8366
35041
34924
10420
12872
46482
1299
52113
17729
46103
8963
25203
2176
2757
26002
40881
9216
29911
40451
12877
4211
36473
2610
29820
31242
66358
7430
26060
7358
28768
26200
29133
19614
17400
18814
39642
6917
46444
7187
64896
</DataArray>
<DataArray NumberOfComponents='3' type='Float32' Name='vels' format='ascii'>
1.317606 0.041712 -0.001279
2.894649 1.599012 -0.428333
1.006134 0.305733 -0.007250
1.432768 0.206157 -0.001594
2.298239 0.354652 0.005578
0.071421 -0.012161 -0.001923
16.088359 1.760722 -4.414455
1.246106 -0.214820 0.009959
0.675835 0.023967 -0.001648
0.087326 0.014141 -0.002146
4.294872 -0.822311 -0.013175
1.170750 -0.327825 0.001400
0.013526 0.000054 -0.001783
1.263589 -0.161026 -0.001580
2.152902 -0.275345 -0.002300
1.361373 0.216521 -0.003397
1.280048 -6.979708 0.058479
0.878951 1.961032 -0.012470
0.015025 0.002450 -0.002896
2.743098 -0.783670 0.184397
1.068911 0.991838 0.001717
1.123192 -0.225964 -0.000218
2.311472 0.111947 0.000847
0.689107 -1.119917 0.007238
1.305227 0.001066 -0.003558
1.648854 -0.387030 0.005217
0.136398 0.000433 0.000788
1.074567 1.287712 -0.001791
0.685012 0.143944 0.001311
1.330925 -0.872154 -0.000041
0.803550 -0.361637 0.000214
0.688546 -0.026782 0.004011
0.763445 -0.474557 0.001062
2.245820 0.938257 0.014404
0.025637 0.007528 0.000349
5.078332 1.880165 0.002902
3.819734 1.015568 -0.201861
3.283443 1.053045 0.006457
3.410819 -1.254274 0.006241
6.079825 -2.416042 -0.022812
0.654704 0.892235 -0.000024
0.680806 -0.047612 0.000153
0.722746 -0.055484 0.000339
0.980540 0.274461 0.000144
0.843796 -0.358805 0.000163
0.026009 -0.006402 -0.000003
1.148814 -0.245487 -0.000581
0.672358 -0.514303 -0.000494
1.373615 0.862635 0.000450
1.583401 0.719725 -0.004720
1.535457 0.430215 -0.000666
1.206321 0.085036 -0.001219
1.264695 1.591487 -0.000152
0.979113 0.200354 0.002838
0.002254 -0.001857 0.002753
2.509507 0.479153 0.002994
0.904679 0.166947 -0.000004
0.003804 0.000057 0.001892
1.267118 0.051614 -0.004745
1.064037 1.692907 0.001417
1.268738 -0.145334 -0.001044
1.732002 0.342593 -0.002370
0.681851 -0.877570 0.002873
0.901376 0.032825 0.011478
3.398096 1.479114 0.003936
0.745963 0.081006 -0.000167
1.548352 0.695103 -0.000277
1.191597 0.386232 -0.002760
2.406371 2.061973 0.003107
3.225663 -1.604830 0.209539
0.578748 1.087993 -0.009123
0.212791 -0.007314 0.000184
1.197642 -0.999161 -0.000527
1.909454 0.040152 -0.004684
0.808786 0.058020 -0.002761
1.915640 0.076210 -0.001078
1.740682 0.720907 -0.003388
2.007566 0.855789 -0.001616
1.040734 -0.734436 -0.007311
1.658271 0.624596 0.287140
1.174908 -0.172518 0.001034
0.754505 -0.735991 -0.027874
1.481627 1.661632 -0.002555
4.256934 -1.658281 1.391357
2.023432 0.228159 0.006719
0.914165 -0.081705 0.000235
1.528534 -0.231522 -0.001719
1.498242 1.494092 -0.008633
1.316047 -10.277212 -0.010718
3.263944 1.151472 0.004081
1.040571 0.063749 0.001599
1.309221 -0.059485 -0.003848
0.014803 -0.014625 -0.000279
5.350279 -1.187151 -0.008353
15.653398 3.182940 7.625945
0.080749 0.004737 0.000176
0.669428 0.022819 -0.000319
1.535129 0.044671 0.003988
1.758564 -2.063849 0.005874
2.481638 1.829556 0.009429
8.484030 -0.846622 -0.023156
0.037430 0.010971 -0.000380
1.768958 0.318304 0.002685
0.003351 -0.000032 -0.000499
-0.009173 -0.001636 -0.007269
1.961467 0.733591 -0.000259
0.023069 0.000009 0.000243
1.496135 1.170779 0.003562
-0.004749 -0.000579 -0.005048
4.674207 -0.661406 -0.088832
2.750741 -0.998869 1.241989
0.000841 0.001195 0.000964
0.573574 0.129870 0.000094
1.891550 0.615165 0.000684
2.345093 -0.743049 0.001994
7.839056 -0.608761 -0.013443
-0.018000 -0.057984 -0.013498
1.691167 1.633453 0.002927
0.298180 0.084730 0.004228
0.981333 0.005181 0.000835
0.942239 -0.247505 0.000076
1.106326 0.695635 -0.000138
1.304205 0.796332 0.000414
0.320312 -8.623520 -0.144976
1.678698 0.838768 0.001467
0.959990 0.234551 0.000005
1.672331 -0.234941 -0.000866
1.571152 0.743361 -0.004327
7.676582 -6.244297 0.032688
1.097535 1.257449 -0.000245
0.063616 -0.010484 -0.001579
0.036602 0.000037 -0.001086
1.754843 -0.103329 -0.000841
0.086175 -2.464780 -0.048878
3.162738 0.010432 -0.000994
3.333056 -0.941948 -0.008647
1.697989 0.529024 0.000348
1.603631 -0.780111 0.000826
2.110888 -0.285619 0.002592
0.151219 0.000671 0.003463
1.442202 0.997400 -0.005098
6.317857 2.415717 -0.005983
4.186916 0.202990 -0.001986
0.579152 0.921591 -0.001422
1.567427 0.210319 0.003729
1.875673 -0.288633 -0.004650
0.573627 1.159841 -0.002734
2.035067 0.943047 -0.001440
5.590030 1.051575 0.003122
7.664198 -0.312052 -0.003873
6.837559 -3.120574 -0.102006
2.273567 -3.571937 0.087666
0.520328 1.038518 -0.001530
4.495626 -0.807732 1.586665
1.213382 -4.147479 0.098467
2.003551 0.590425 0.017051
0.690489 1.257178 0.001851
0.510031 -0.002592 0.003599
0.553320 0.011018 0.001336
1.186706 0.023353 -0.000652
2.564291 0.809093 0.083254
0.029111 0.008609 -0.000776
1.791782 0.518401 -0.001463
0.299604 0.049705 0.001154
1.345389 -0.214480 0.001231
2.374535 0.839587 0.005141
2.159281 2.737714 -0.014159
-0.104015 -0.775812 -0.035978
0.842119 1.554118 0.002675
0.859117 0.330309 0.000345
0.567400 0.166349 0.009460
1.189097 1.110418 0.001106
1.813468 0.293001 -0.000263
1.348313 0.021831 0.000087
7.035333 1.902470 0.008951
1.268308 0.888737 0.007551
-0.001534 0.001296 0.000130
0.016610 -0.633201 -0.027586
2.603821 0.654407 0.086379
1.808378 0.230056 -0.000047
0.159742 0.052013 0.083621
2.143713 -1.922326 -0.000971
4.625040 -1.089024 -0.007696
6.976278 -0.833953 -0.348562
1.723758 0.063342 -0.000497
1.092064 1.400038 0.000360
1.635532 1.839635 -0.002492
0.045872 0.013401 -0.000662
0.019946 -0.000004 -0.000854
0.063644 0.009917 -0.000967
0.500935 0.083560 0.001936
5.547314 1.556343 0.001584
1.034901 0.823948 0.003049
3.157236 0.472916 0.587971
1.366109 0.308757 -0.000839
3.545101 -1.935378 1.217879
1.947537 0.747677 -0.000530
1.748669 2.177059 0.038656
65.923938 0.620368 -0.086720
1.055045 1.228161 -0.000263
1.900156 0.096974 0.003561
2.377194 1.459933 0.000418
1.568515 0.307082 0.000123
4.567513 -0.359427 0.003966
0.438555 0.809403 0.001116
1.898575 0.840563 -0.000565
0.173812 -0.033846 -0.000229
1.504975 -0.724729 0.000684
4.265720 0.867379 -0.896977
0.285429 0.018288 0.004659
0.916547 -0.272633 -0.000582
1.010376 -0.100832 0.000636
1.683742 0.395862 -0.000707
1.087160 0.664715 -0.001155
0.904965 1.116047 -0.000858
1.254933 1.209419 -0.002062
1.703414 -2.428927 0.003876
1.757012 0.829051 -0.004098
2.345127 -2.664387 -0.032113