<VTKFile type='UnstructuredGrid' version='1.0' byte_order='LittleEndian' header_type='UInt64'>
<UnstructuredGrid>
<Piece NumberOfCells='500' NumberOfPoints='500'>
<Points>
<DataArray NumberOfComponents='3' type='Float32' Name='Position' format='ascii'>
-65.341976 234.217108 -4.834424
533.580665 155.707662 -17.214079
-401.469444 305.251552 -6.227975
-167.181978 276.767150 -10.281243
635.746198 262.302168 -20.259991
-326.106437 139.354424 -2.080182
618.154103 65.329555 -22.110675
-18.427056 285.919847 -7.622836
-74.455705 234.299618 -5.149628
-262.914850 260.630424 -4.909183
353.961406 46.459737 -29.657499
-246.784180 46.100297 -29.800414
-294.735696 220.861498 -6.094164
-129.728187 133.044803 -3.971117
289.942917 232.240333 -6.981269
376.155033 301.981407 -14.640450
484.752139 101.130559 -6.626373
309.820502 338.914158 -14.615116
-348.786973 283.591462 -6.429825
599.584363 37.818333 -20.077999
625.248245 124.690765 -13.086312
-92.016851 41.959919 -4.387268
633.937277 258.797733 -26.185828
76.832885 321.171329 -15.727294
493.406782 292.197832 -17.407426
600.259571 228.022527 -16.522721
-217.937540 213.629156 -23.694524
541.087808 155.710940 -9.114146
-166.274965 334.010481 -37.528355
87.142023 284.081957 -7.098789
559.173791 198.733203 -13.878962
-165.020866 151.267623 -2.593769
221.427559 248.834200 -10.780182
517.924286 205.548215 -9.966123
-264.039291 340.135731 -19.646908
337.080987 224.119715 -8.662522
597.243656 69.733177 -27.395130
656.056963 70.832393 -16.668510
313.861748 193.013685 -31.141517
341.884791 29.068541 -27.078059
30.614105 146.003211 -7.191446
-86.225199 144.769352 -4.014567
-105.306383 141.918874 -37.007277
-7.685940 71.455543 -32.414400
562.362271 203.107623 -18.305050
-388.295712 215.906714 -37.724112
-133.575116 49.944214 -35.234359
546.439275 200.864575 -9.925738
359.424154 331.042531 -22.655353
495.308111 206.444396 -8.993878
492.560646 297.109166 -10.761370
-102.240575 253.313420 -6.500233
535.249818 163.981430 -17.304063
-145.627949 340.710437 -37.303095
-496.980456 188.104820 -1.812163
308.780528 132.989675 -7.600380
-100.684672 344.499565 -5.596567
-486.548692 182.858757 -32.374587
478.048257 286.253779 -16.648388
240.929405 157.516416 -13.465599
-134.709388 134.461392 -34.086244
497.104748 302.019451 -10.295135
59.430481 322.682606 -10.222504
452.423912 228.616366 -6.376709
401.079608 243.909609 -7.395815
-171.093851 260.600609 -37.392748
208.021660 186.789676 -32.698930
383.804793 371.727064 -16.502712
308.916119 62.446216 -8.483561
573.877497 39.163464 -10.375816
40.026663 182.354034 -14.281565
-366.936805 183.963621 -35.005025
125.798447 229.155586 -20.080927
513.010917 309.697101 -18.137144
-129.217885 243.191219 -3.071524
-87.730600 228.671316 -32.624513
489.414765 213.691451 -28.160919
538.390663 251.578186 -26.478135
541.220289 196.925382 -11.402554
474.949143 215.506161 -13.241417
-230.310983 128.714502 -6.753611
517.766680 189.029750 -13.837521
326.787166 304.634773 -27.922685
613.835960 39.789778 -17.181175
632.952551 257.095040 -22.977486
-127.190342 133.155735 -3.680736
141.698904 218.394282 -9.163372
523.289727 160.139187 -16.173436
565.170686 39.067455 -20.984339
657.183935 71.224628 -21.992603
-131.611224 236.032040 -35.300594
487.423334 293.883866 -16.919448
492.314943 189.956160 -14.447004
356.608922 42.229489 -28.013395
524.698090 151.647494 -17.224712
-191.518315 233.990517 -2.638632
-225.358775 222.917074 -2.426642
-7.301009 273.463814 -10.267623
286.510390 284.907536 -30.811602
319.132027 46.560885 -9.378531
440.226385 35.276049 -20.736806
-275.260787 343.334386 -12.051327
-138.740569 319.595021 -23.364214
-433.078457 176.956906 -26.659481
-393.669797 245.216220 -19.965892
539.294426 257.281983 -10.632298
-215.747053 177.579798 -24.214880
688.318552 134.179702 -17.850354
-393.096646 244.548591 -19.912406
325.283299 30.416974 -20.154437
614.894277 40.931336 -19.970331
-502.388422 192.204909 -10.145941
-104.085345 362.459752 -3.392991
293.603732 195.488280 -23.342684
299.212003 239.445144 -7.282194
345.391634 265.881728 -32.020564
317.437068 187.334710 -26.051089
343.565545 312.915542 -13.186868
-390.077265 311.177592 -5.622640
-115.989916 214.302665 -27.369948
-204.731855 43.989196 -35.947985
72.327879 208.640983 -6.740042
359.362983 331.069763 -15.266001
532.640971 36.347159 -17.726525
507.261035 203.071667 -10.052113
-121.833015 357.615565 -33.887448
-73.478414 116.435213 -17.781286
497.130194 205.654848 -9.321618
388.462720 264.326180 -6.790169
194.331826 168.294114 -32.460448
-247.492653 90.240030 -4.800954
-372.885878 212.287749 -4.854616
502.960818 304.861614 -10.402903
540.477199 33.752191 -12.233843
317.294027 113.101615 -27.595769
505.431474 76.886339 -27.657241
252.620326 197.120867 -9.265553
563.674071 213.077057 -17.487818
108.259346 282.892163 -23.286710
-376.507103 210.422704 -3.371482
482.444505 204.318627 -20.297143
373.545843 261.906245 -25.515487
322.055907 104.633215 -32.765976
559.101038 162.414990 -9.256378
627.244588 255.862289 -11.793855
108.890172 274.876618 -11.105848
51.122008 147.464198 -23.473189
525.096839 254.739927 -10.685266
465.887055 60.391593 -28.898525
358.729106 63.454665 -29.740441
391.370370 18.333524 -3.060390
294.455959 292.979521 -8.142369
599.313304 164.987346 -13.996086
565.789990 259.116248 -12.328383
249.370640 312.669385 -25.352252
-385.479752 307.313707 -13.307491
53.104791 151.995998 -14.761997
-338.825470 181.353525 -32.543627
-191.191959 224.305311 -2.898030
-246.830961 222.014994 -5.498964
525.467897 204.608940 -12.760024
-365.209617 312.746036 -13.259974
509.756304 302.462399 -18.626693
-172.795022 309.323333 -21.856547
-80.755562 55.948057 -6.634065
517.361432 199.900659 -14.256274
344.412871 295.757478 -11.736024
315.544940 181.828749 -25.213317
224.296658 154.894645 -13.840179
9.305338 80.343149 -13.824002
-351.470197 322.479567 -19.133096
171.586616 172.481552 -28.968205
676.603092 254.796759 -16.148048
-2.767229 253.698319 -6.733227
487.604069 102.764416 -13.064418
486.377181 201.037536 -12.324852
-521.854313 274.660513 -37.121411
347.690594 81.025198 -19.914486
507.807228 196.550681 -10.260996
689.100943 253.922263 -17.429071
487.983722 199.205946 -27.324688
270.372489 280.606549 -32.121878
350.633579 63.448778 -6.124014
267.674661 315.140056 -13.159806
-22.356002 34.967737 -26.904428
328.043159 351.667719 -25.837700
345.315124 301.975132 -27.411538
-104.577042 385.059094 -17.669036
-333.537350 176.622795 -19.892585
-345.410604 279.688685 -3.200206
-153.593580 318.792556 -24.644895
465.775478 79.563875 -24.113634
623.051686 122.890002 -12.304270
513.666808 197.115285 -26.558825
-159.661071 345.936210 -2.817651
599.928053 62.501250 -21.434500
707.088361 137.272846 -18.169125
301.091323 86.686254 -13.385634
561.303766 116.790143 -11.601121
188.710401 169.388567 -32.909853
667.417078 252.451409 -19.816500
487.644990 252.259993 -26.277997
-105.575971 358.484543 -34.845651
487.150304 51.871320 -26.479063
39.496521 137.343875 -10.629213
684.477829 132.243549 -17.781884
-177.037493 71.234691 -4.883398
103.526206 235.517456 -12.481479
607.791175 38.036937 -12.589795
-389.297850 183.816434 -2.117639
564.200447 203.363421 -16.680035
605.325570 226.406645 -15.367001
510.007920 298.283486 -18.751476
364.944302 372.208862 -20.678336
184.677598 166.823190 -32.039126
635.721317 125.258872 -20.759646
500.248098 118.022276 -12.152934
486.871256 212.110266 -26.495231
489.796697 116.238049 -10.987736
-186.595624 34.603807 -34.425724
600.744192 256.385316 -12.311725
-271.500964 181.269787 -29.705011
-240.149734 83.526873 -34.300389
505.555582 135.249364 -20.915632
648.917557 254.829351 -11.954696
47.375041 152.663736 -19.640074
374.336905 243.252154 -23.282263
-131.356674 223.735923 -35.989446
55.444448 154.684221 -23.830324
76.763608 213.483200 -8.607192
342.639006 49.713700 -28.663057
-126.388763 259.721827 -3.339160
-110.610538 232.757820 -36.083317
592.009393 119.119115 -15.011783
-9.860644 73.635609 -13.421985
-80.489519 380.688034 -6.989826
507.824805 140.953003 -20.495104
-295.287990 223.778292 -33.160857
0.019241 224.491875 -18.801755
133.746199 219.172764 -6.094767
-134.477592 51.299613 -34.683744
318.792376 219.111085 -7.373898
316.469479 112.255429 -29.293491
492.384593 105.871036 -8.914978
671.043925 253.067593 -19.059045
-242.447343 213.945015 -29.382223
356.562616 240.966303 -31.244308
113.683030 274.138704 -14.445697
5.701966 129.099458 -6.834280
-175.402557 119.937357 -34.657263
494.177269 212.125072 -8.687528
590.661896 220.946592 -16.511012
264.762858 331.856617 -17.256418
232.951833 278.658594 -21.216016
375.314680 367.578827 -17.195336
-186.977032 170.853343 -4.903405
15.953937 223.817933 -23.878131
-331.802877 330.447796 -31.412018
-310.143458 291.945118 -37.005569
156.404954 193.320570 -6.706670
318.335735 188.221664 -17.524850
-120.609093 242.253485 -3.453267
640.607887 45.264664 -18.534995
558.762795 196.115419 -14.836436
521.022413 315.573553 -12.116351
581.419311 39.299019 -8.572471
-168.399727 167.098553 -36.893168
-498.705613 188.553224 -24.436945
506.234808 114.878457 -26.534715
-283.495024 261.338696 -4.030554
459.979731 275.371167 -14.893631
-405.749164 126.149916 -35.881700
644.768760 157.033532 -19.348998
-200.617271 173.765707 -12.722990
560.057622 164.993135 -16.355033
-326.182448 176.159744 -26.543946
360.879964 59.146101 -20.793763
630.804521 125.940904 -19.682141
503.860469 307.299535 -18.012380
550.483742 205.580670 -19.074128
437.994685 273.327304 -7.077243
506.140759 310.285197 -19.063365
203.739253 166.707774 -32.202445
360.160976 332.763757 -22.956563
322.059275 100.921505 -9.216156
-230.267486 125.487418 -34.352222
366.308529 20.995358 -11.861085
-142.355770 368.675039 -4.380971
372.675705 268.941453 -22.122818
-220.583925 264.402427 -32.081630
275.286584 279.310408 -7.815654
549.780778 158.389177 -9.320390
686.847213 252.604456 -13.390180
-502.783710 192.340517 -4.018608
-227.901458 55.449604 -33.904431
363.915379 245.761525 -30.554814
600.703991 37.138539 -11.982163
-249.773467 130.906573 -31.999176
324.367891 108.199062 -21.925740
-411.403537 210.765436 -4.553111
-284.059577 216.274138 -12.642733
295.266464 139.595531 -24.275561
86.076581 247.922014 -8.335808
411.591621 245.039275 -3.410562
271.183183 215.847112 -6.700754
491.391238 49.965412 -22.817435
523.963247 154.704722 -19.658168
-159.021231 364.267877 -20.018938
-212.920258 80.485223 -33.526198
310.675329 312.804112 -27.967762
523.514891 62.196264 -27.764399
-415.727304 211.534917 -36.772779
-366.190528 307.760275 -26.668398
619.816611 61.691708 -17.972060
587.559452 37.544213 -12.270152
-345.497432 213.362633 -3.989879
364.609105 57.190149 -20.888373
-112.870517 147.823983 -3.846390
518.143437 305.572478 -21.062596
519.122504 195.585351 -12.254929
360.883557 265.979401 -31.358488
536.046828 257.184991 -10.461937
332.716840 229.644264 -32.448409
71.370799 317.020949 -9.978323
-158.730592 173.230584 -35.521496
607.520165 225.217766 -15.777199
-117.316013 162.528701 -3.534751
34.539270 141.732481 -32.571386
665.464498 128.243293 -18.415708
465.145964 85.784452 -10.780304
-248.159052 218.504770 -2.935787
-276.014940 176.269722 -5.359610
15.497801 98.366955 -31.160538
520.159371 35.721831 -22.357701
-145.820740 234.453690 -37.743370
460.873928 25.714539 -24.665938
-51.966370 218.523366 -31.349449
346.727768 261.503234 -33.072670
-93.952958 139.096493 -5.985969
662.659933 255.832592 -21.646393
516.624711 253.162965 -10.057040
-293.326752 218.504084 -32.535477
398.843466 18.566378 -2.846264
78.928938 311.630907 -27.742010
-187.371344 67.028649 -34.141911
350.356515 66.152331 -25.612835
-190.421088 342.602052 -2.551489
-186.683033 267.841159 -19.530971
310.818096 190.517253 -28.628003
304.064688 194.911951 -8.837264
537.628695 156.085869 -9.445471
223.904822 163.883111 -31.736157
-423.983477 300.368637 -6.704420
-22.061256 207.237775 -17.466019
-52.703611 344.741779 -6.072095
-379.157293 217.089476 -26.643655
-14.518621 41.486077 -8.784767
353.670411 362.977717 -18.837035
286.372482 281.071713 -8.086382
233.907171 265.301028 -31.820228
612.145754 254.048916 -11.133032
608.313102 42.826869 -13.061509
119.868898 244.785500 -8.355006
629.030982 260.352526 -24.608533
-293.762696 63.653796 -31.888740
25.450312 97.379013 -14.467559
-263.115416 210.659069 -28.013913
-118.664657 272.458133 -35.882178
-298.815817 135.002576 -26.378952
445.139716 48.645153 -3.967285
-239.162188 213.284558 -29.257453
-293.647820 218.594039 -5.574309
539.438895 153.099991 -11.899812
267.868406 278.532483 -32.793173
665.199661 130.312238 -20.527639
-218.234384 211.871062 -22.425975
320.559148 317.643925 -11.278757
-4.255093 123.921798 -6.863813
462.846990 79.271416 -9.053748
350.243478 355.091310 -17.365250
611.264307 38.019147 -20.747839
385.243990 18.687943 -2.320420
-1.307062 81.954146 -7.853759
455.645227 23.129342 -7.790212
-501.947188 193.453236 -17.447938
260.447302 330.987281 -25.253894
535.355227 250.707301 -12.213755
557.080214 195.840371 -19.612497
237.199931 302.648487 -24.304453
-260.720032 49.718321 -11.399191
285.077141 297.971353 -29.876171
-456.248106 212.403599 -37.761454
527.189308 157.327935 -20.558898
-94.585277 175.949098 -10.608861
564.367158 62.995409 -15.619437
-98.709245 242.214403 -34.298509
209.768995 166.237158 -8.165172
-163.482243 374.616339 -34.961885
331.001803 89.696129 -26.234351
-354.661955 179.520412 -5.233060
540.402814 199.023333 -11.063342
-402.096564 92.376132 -26.418652
-186.824097 82.736283 -23.812808
-147.098673 374.180108 -36.008125
357.832435 297.189440 -27.034898
265.276163 170.398411 -7.692323
315.332503 193.636787 -7.514430
596.947876 61.237768 -10.213843
464.223179 222.538314 -9.358305
647.556935 125.595390 -18.936765
-49.479521 197.753982 -7.814518
353.037619 43.899492 -28.181629
20.536231 113.467998 -13.070559
-402.641933 308.131938 -12.746058
564.278531 164.890009 -21.364791
-22.960063 64.453154 -33.064918
510.844610 138.581260 -13.703088
-173.210712 316.886904 -11.654047
-250.458801 213.953521 -11.268173
560.810771 165.110198 -21.657404
234.515113 216.705953 -30.507504
-124.241797 46.154441 -35.839234
144.663498 211.737837 -6.607790
526.502193 190.777571 -20.229974
179.406344 185.855827 -9.606564
306.975505 189.835042 -29.672791
561.243336 117.873838 -28.504603
-55.297161 242.811217 -5.954217
532.851063 34.811399 -11.985555
393.573299 253.214453 -4.672911
1.882996 215.647537 -27.886485
17.010800 92.884725 -10.560801
589.151022 221.478333 -14.933604
-170.379104 118.226407 -23.558390
-502.036257 193.957886 -18.032915
-162.728154 224.291517 -36.135222
492.010756 105.585815 -9.789676
527.751226 142.607141 -21.993274
533.708564 310.339367 -10.512805
-167.285890 166.859989 -35.445258
604.807271 34.947497 -19.599632
-219.708807 310.295583 -31.672444
650.371299 255.813354 -11.763150
612.934246 40.450280 -21.302503
-271.506221 183.525380 -22.168717
497.134371 71.881302 -28.866550
490.923495 62.786042 -7.705403
313.215880 55.113341 -8.962282
509.554860 310.996765 -18.117504
-106.915628 242.419079 -37.029293
-120.340166 257.352683 -3.071356
373.234564 24.077688 -3.093739
368.363474 36.460222 -13.220341
-72.415214 185.145406 -27.190837
-137.496187 243.394206 -36.852523
381.304064 253.025294 -17.998405
-108.161447 156.394441 -6.297874
512.689471 147.878120 -15.876192
587.901379 61.139854 -10.094548
18.287995 212.582929 -7.513036
-303.175719 65.612030 -31.966749
279.610556 284.160845 -31.422032
466.425267 216.550349 -11.303899
-108.950528 225.731170 -35.408482
-319.220187 217.601372 -5.828804
301.583220 100.829385 -11.353920
36.512801 151.364962 -7.376314
543.141473 158.157743 -9.823676
-116.519859 253.623330 -35.011778
537.391893 90.969770 -10.651225
-156.888046 335.812274 -37.680066
157.088014 205.366508 -6.717908
-164.130078 365.694995 -35.877384
-28.024370 28.055789 -8.610282
400.884835 273.474580 -5.355285
315.256885 48.172691 -8.913031
-96.315626 160.947273 -3.715040
259.404551 272.483732 -32.584216
497.626203 208.087454 -9.568004
-317.220388 213.061849 -19.337227
-173.176175 358.929498 -37.313363
493.678526 107.326553 -8.777519
-165.097794 165.710474 -3.184768
451.720580 267.930312 -8.369780
115.149485 256.677982 -30.208761
629.441687 255.458902 -26.557709
-242.022253 213.553108 -29.536266
119.418841 240.986436 -29.938501
-239.161007 180.633636 -29.364283
310.474621 153.202129 -8.945449
296.390763 348.704388 -25.666705
300.668982 335.287084 -21.914984
81.291256 309.998897 -27.438838
-6.556263 52.939551 -29.735492
-56.945316 28.044354 -13.038904
525.209716 37.320923 -12.313811
-192.349167 119.655646 -9.611553
328.335966 38.886064 -9.299540
-175.168292 313.786713 -10.212676
569.698657 212.120790 -17.378153
</DataArray>
</Points>
<PointData>
<DataArray NumberOfComponents='1' type='Int32' Name='ParticleType' format='ascii'>
1
1
1
1
1
1
1
1
1
1
1
1
1
1
1
1
1
1
1
1
1
1
1
1
1
1
1
1
1
1
1
1
1
1
1
1
1
1
1
1
1
1
1
1
1
1
1
1
1
1
1
1
1
1
1
1
1
1
1
1
1
1
1
1
1
1
1
1
1
1
1
1
1
1
1
1
1
1
1
1
1
1
1
1
1
1
1
1
1
1
1
1
1
1
1
1
1
1
1
1
1
1
1
1
1
1
1
1
1
1
1
1
1
1
1
1
1
1
1
1
1
1
1
1
1
1
1
1
1
1
1
1
1
1
1
1
1
1
1
1
1
1
1
1
1
1
1
1
1
1
1
1
1
1
1
1
1
1
1
1
1
1
1
1
1
1
1
1
1
1
1
1
1
1
1
1
1
1
1
1
1
1
1
1
1
1
1
1
1
1
1
1
1
1
1
1
1
1
1
1
1
1
1
1
1
1
1
1
1
1
1
1
1
1
1
1
1
1
1
1
1
1
1
1
1
1
1
1
1
1
1
1
1
1
1
1
1
1
1
1
1
1
1
1
1
1
1
1
1
1
1
1
1
1
1
1
1
1
1
1
1
1
1
1
1
1
1
1
1
1
1
1
1
1
1
1
1
1
1
1
1
1
1
1
1
1
1
1
1
1
1
1
1
1
1
1
1
1
1
1
1
1
1
1
1
1
1
1
1
1
1
1
1
1
1
1
1
1
1
1
1
1
1
1
1
1
1
1
1
1
1
1
1
1
1
1
1
1
1
1
1
1
1
1
1
1
1
1
1
1
1
1
1
1
1
1
1
1
1
1
1
1
1
1
1
1
1
1
1
1
1
1
1
1
1
1
1
1
1
1
1
1
1
1
1
1
1
1
1
1
1
1
1
1
1
1
1
1
1
1
1
1
1
1
1
1
1
1
1
1
1
1
1
1
1
1
1
1
1
1
1
1
1
1
1
1
1
1
1
1
1
1
1
1
1
1
1
1
1
1
1
1
1
1
1
1
1
1
1
1
1
1
1
1
1
1
1
1
1
1
1
1
1
1
1
1
1
1
1
1
1
1
1
1
1
1
1
1
1
1
1
1
1
1
1
1
1
1
1
1
1
1
1
1
1
1
1
1
1
1
</DataArray>
<DataArray NumberOfComponents='1' type='Int32' Name='ParticleID' format='ascii'>
0
1
2
3
4
5
6
7
8
9
10
11
12
13
14
15
16
17
18
19
20
21
22
23
24
25
26
27
28
29
30
31
32
33
34
35
36
37
38
39
40
41
42
43
44
45
46
47
48
49
50
51
52
53
54
55
56
57
58
59
60
61
62
63
64
65
66
67
68
69
70
71
72
73
74
75
76
77
78
79
80
81
82
83
84
85
86
87
88
89
90
91
92
93
94
95
96
97
98
99
100
101
102
103
104
105
106
107
108
109
110
111
112
113
114
115
116
117
118
119
120
121
122
123
124
125
126
127
128
129
130
131
132
133
134
135
136
137
138
139
140
141
142
143
144
145
146
147
148
149
150
151
152
153
154
155
156
157
158
159
160
161
162
163
164
165
166
167
168
169
170
171
172
173
174
175
176
177
178
179
180
181
182
183
184
185
186
187
188
189
190
191
192
193
194
195
196
197
198
199
200
201
202
203
204
205
206
207
208
209
210
211
212
213
214
215
216
217
218
219
220
221
222
223
224
225
226
227
228
229
230
231
232
233
234
235
236
237
238
239
240
241
242
243
244
245
246
247
248
249
250
251
252
253
254
255
256
257
258
259
260
261
262
263
264
265
266
267
268
269
270
271
272
273
274
275
276
277
278
279
280
281
282
283
284
285
286
287
288
289
290
291
292
293
294
295
296
297
298
299
300
301
302
303
304
305
306
307
308
309
310
311
312
313
314
315
316
317
318
319
320
321
322
323
324
325
326
327
328
329
330
331
332
333
334
335
336
337
338
339
340
341
342
343
344
345
346
347
348
349
350
351
352
353
354
355
356
357
358
359
360
361
362
363
364
365
366
367
368
369
370
371
372
373
374
375
376
377
378
379
380
381
382
383
384
385
386
387
388
389
390
391
392
393
394
395
396
397
398
399
400
401
402
403
404
405
406
407
408
409
410
411
412
413
414
415
416
417
418
419
420
421
422
423
424
425
426
427
428
429
430
431
432
433
434
435
436
437
438
439
440
441
442
443
444
445
446
447
448
449
450
451
452
453
454
455
456
457
458
459
460
461
462
463
464
465
466
467
468
469
470
471
472
473
474
475
476
477
478
479
480
481
482
483
484
485
486
487
488
489
490
491
492
493
494
495
496
497
498
499
</DataArray>
<DataArray NumberOfComponents='1' type='Int8' Name='IsActive' format='ascii'>
1
1
1
1
1
1
1
1
1
1
1
1
1
1
1
1
1
1
1
1
1
1
1
1
1
1
1
1
1
1
1
1
1
1
1
1
1
1
1
1
1
1
1
1
1
1
1
1
1
1
1
1
1
1
1
1
1
1
1
1
1
1
1
1
1
1
1
1
1
1
1
1
1
1
1
1
1
1
1
1
1
1
1
1
1
1
1
1
1
1
1
1
1
1
1
1
1
1
1
1
1
1
1
1
1
1
1
1
1
1
1
1
1
1
1
1
1
1
1
1
1
1
1
1
1
1
1
1
1
1
1
1
1
1
1
1
1
1
1
1
1
1
1
1
1
1
1
1
1
1
1
1
1
1
1
1
1
1
1
1
1
1
1
1
1
1
1
1
1
1
1
1
1
1
1
1
1
1
1
1
1
1
1
1
1
1
1
1
1
1
1
1
1
1
1
1
1
1
1
1
1
1
1
1
1
1
1
1
1
1
1
1
1
1
1
1
1
1
1
1
1
1
1
1
1
1
1
1
1
1
1
1
1
1
1
1
1
1
1
1
1
1
1
1
1
1
1
1
1
1
1
1
1
1
1
1
1
1
1
1
1
1
1
1
1
1
1
1
1
1
1
1
1
1
1
1
1
1
1
1
1
1
1
1
1
1
1
1
1
1
1
1
1
1
1
1
1
1
1
1
1
1
1
0
1
1
1
1
1
1
1
1
1
1
1
1
1
1
1
1
1
1
1
1
1
1
1
1
1
1
1
1
1
1
1
1
1
1
1
1
1
1
1
1
1
1
1
1
1
1
1
1
1
1
1
1
1
1
1
1
1
1
1
1
1
1
1
1
1
1
1
1
1
1
1
1
1
1
1
1
1
1
1
1
1
1
1
1
1
1
1
1
1
1
1
1
1
1
1
1
1
1
1
1
1
1
1
1
1
1
1
1
1
1
1
1
1
1
1
1
1
1
1
1
1
1
1
1
1
1
1
1
1
1
1
1
1
1
1
1
1
1
1
1
1
1
1
1
1
1
1
1
1
1
1
1
1
1
1
1
1
1
1
1
1
1
1
1
1
1
1
1
1
1
0
1
1
1
1
1
1
1
1
1
1
1
1
1
1
1
1
1
1
1
1
1
1
1
1
1
</DataArray>
<DataArray NumberOfComponents='1' type='Int32' Name='ParticleTetID' format='ascii'>
3024
75194
5581
6413
63819
6752
60509
13557
18181
6338
26707
9716
7436
13304
25185
24648
52921
29618
6031
69309
60610
11126
68014
33774
52009
57066
7409
75190
4929
29847
56742
18360
38523
64893
12679
41277
65966
64608
48218
32682
48945
10531
11608
19849
72440
24137
5938
61601
28667
52277
52133
10459
58218
5991
19208
44463
21061
10850
55502
37500
12147
52133
38631
53983
133172
5524
39127
42632
46733
59279
33632
1079
88686
64806
2466
24421
52052
79066
68423
55588
6915
66930
37075
57824
68014
13304
92375
75896
71399
64611
933
52010
53142
39612
74400
3168
9414
8194
29822
30191
86842
7997
12413
3808
6109
67559
7373
57030
6109
36443
57823
2273
4880
28810
27417
34646
49762
33862
10118
3902
5795
34671
28664
57228
64823
11015
10016
52276
81815
33349
6482
5276
70726
57226
48144
69494
32440
77226
33095
5276
53901
39934
28886
59099
71968
24773
37756
79295
52430
47641
146700
32314
71106
66856
30394
10120
45998
11876
9506
9542
64894
7978
70729
5465
5095
64896
30946
43697
44754
27798
8036
42170
59300
6213
52150
53176
10690
25225
64823
59298
53184
35276
32419
29452
3414
29513
30954
14408
11869
6032
7175
53919
72671
66934
5654
73935
64196
96186
69016
35203
73879
52660
4895
52642
33431
66732
8083
26212
61006
16020
72440
57066
70730
42309
49135
60363
70492
52048
52817
9681
61582
7340
13913
74297
63886
26179
82537
2087
37990
34671
44922
360
18015
59390
19842
633
65745
7448
31183
90623
5939
40449
48146
52151
73879
7484
51294
24576
30855
8801
51683
72889
29438
39087
49074
9290
32303
8024
6695
36705
45080
2466
58903
56814
74362
57891
9089
19217
59212
6356
53376
2213
56923
9400
59102
11152
85518
60361
64807
61602
121708
64807
33350
28666
28877
6927
85265
2342
47493
8455
29885
58179
59298
2270
12957
46416
69305
6781
25533
16256
9526
38261
30225
-126563
31287
52515
75895
13437
8529
32340
56838
16271
7986
60505
59872
12961
85469
11592
58457
66460
34951
67559
42853
38633
7323
57966
4106
33440
59084
51430
9542
7328
27914
72839
1673
51329
21234
34645
10531
73883
70402
7448
175914
27660
8097
32428
218
12482
42564
28803
75191
31657
4125
1609
17245
5284
1985
42055
29811
34052
67433
61006
47669
70426
7610
31976
7556
449
6850
55190
7484
7436
75190
35275
59085
7409
27382
11361
53913
42056
61011
143963
14495
54471
2276
30682
79061
56815
41536
7780
29802
11428
75897
20794
68714
10565
27741
13641
43858
13160
68423
2458
6581
14975
32144
37353
48209
70185
52367
58004
15123
26708
48388
3586
59103
17473
74292
5459
9544
59103
36608
23111
37891
66465
36041
42564
76010
2089
57227
127228
32305
24701
72888
6869
2276
16216
52151
74061
56524
9089
61009
8995
63886
57825
7337
52466
52455
46733
64808
10618
361
144487
85150
21936
2483
82770
11594
69110
58433
32871
9589
29821
54707
12705
10765
93831
48965
58216
4967
80141
5993
26501
2159
18545
-127033
30190
11630
32558
52276
7459
1835
52113
9074
84420
50468
71974
7484
40280
7304
49809
29585
29621
27660
22098
13198
72833
6881
31829
5459
72294
</DataArray>
<DataArray NumberOfComponents='3' type='Float32' Name='vels' format='ascii'>
0.918175 -0.097605 -0.000269
1.115905 0.480369 -0.000449
0.332575 0.101798 0.001857
0.371221 0.058848 0.000417
2.359028 -0.178281 -0.000011
0.394799 -0.061499 0.000687
2.262221 0.265067 -0.003029
1.397239 -0.466342 0.000118
0.746864 -0.056878 -0.000402
0.010076 0.001643 -0.001580
2.600707 -1.506038 1.207074
1.371404 -0.381375 0.001327
0.012479 0.000046 -0.001583
0.827633 -0.054572 -0.000595
1.606023 0.578794 0.000374
0.288734 -0.422748 0.091387
0.517007 0.799949 -0.004182
1.187107 0.496930 -0.000721
0.102694 0.017064 -0.000891
2.555042 0.042770 -0.000536
0.104297 0.016547 -0.001238
0.271565 0.019550 -0.000111
2.194916 -0.084900 0.001430
0.886333 -0.421608 0.000897
1.558378 1.184753 -0.014468
1.752521 0.029769 -0.002938
0.466537 0.002414 0.001251
0.746423 0.276800 0.000010
1.456921 0.276274 0.000469
1.299138 -0.904915 -0.001090
0.493644 0.006227 0.014048
0.661028 -0.043216 0.000186
0.777795 2.399128 -0.075489
0.662470 -0.028689 0.000418
2.765222 0.722002 -0.002041
0.748119 0.579492 0.004821
1.558555 -0.063240 0.000978
2.601027 0.476138 0.003185
0.332657 -0.686979 -0.027796
3.091808 -1.279714 0.475183
1.139738 1.236199 0.000227
1.129086 0.112170 0.000494
0.662851 0.015650 -0.000089
0.539842 0.893507 -0.001309
0.370017 0.171135 0.017686
0.287426 0.008754 -0.000562
1.025172 -0.150691 -0.000220
0.755452 0.117662 0.002726
0.553040 -0.098279 -0.012061
0.663919 -0.437133 0.001538
0.806294 0.609638 0.001276
1.055646 0.005632 -0.000267
1.087611 0.322882 -0.001208
1.221639 0.232871 -0.000055
-0.000164 0.000338 0.002391
2.288958 -8.144852 0.036344
1.070824 -0.022497 0.000876
0.003303 0.000053 0.001780
1.640072 1.263673 -0.141170
3.642589 0.938781 0.139889
1.090202 -0.119821 0.000334
0.868816 0.829980 -0.000305
0.904559 -0.225762 0.000176
4.568061 -1.821087 -1.411897
49.472485 -13.878159 -0.468317
0.657697 0.069968 -0.000516
6.628058 1.045054 0.003423
1.966289 1.390253 0.841258
1.095024 -2.137262 -0.004555
2.004711 0.006153 0.001429
3.572051 2.176838 0.016220
0.023174 0.000045 0.004956
0.002228 0.016809 0.040175
1.007101 0.612496 -0.004925
1.139990 0.051334 0.000151
1.464431 -0.084311 -0.000058
0.949962 -0.648672 0.005772
1.678890 0.238020 0.000578
0.824402 0.024530 -0.000323
1.090271 -0.854698 -0.072698
1.022344 -0.147512 0.001166
0.679122 -0.103810 0.000290
0.821910 0.112248 -0.003125
2.564669 0.330441 0.000365
2.291751 -0.121069 0.000224
0.739622 -0.045928 -0.000404
5.549129 -1.241881 -0.571679
0.877122 0.506362 0.000496
2.258016 0.052611 0.000201
2.554259 0.462011 0.001667
1.160467 0.023828 -0.000938
1.113154 1.125586 -0.012333
0.362029 -0.368785 -0.003106
1.993204 -1.268416 1.089129
0.932703 0.687844 0.000473
0.721373 0.038325 0.000699
0.610293 0.019129 -0.000841
2.155497 -0.496758 -0.000011
1.428775 0.927045 -0.000177
1.417571 -1.182025 -0.002613
1.801285 0.811988 -2.061595
0.106168 0.031072 -0.000184
1.470007 0.231180 0.000985
0.000220 -0.000020 -0.000559
0.018919 0.002956 0.001189
1.408998 0.181964 -0.000966
0.132016 -0.000167 0.000332
2.228952 0.279168 0.001416
0.061222 0.009513 0.001276
2.423778 -0.579533 0.137116
2.629780 0.394109 0.001116
0.001232 0.000197 0.001141
0.683366 0.032922 0.000097
1.728138 -1.514432 -0.003498
1.434844 0.612511 -0.000457
2.567179 0.261169 0.048351
-0.083371 -0.278923 -0.017142
0.910598 0.141083 -0.002027
0.266482 0.078896 -0.002087
0.662149 0.000783 0.001948
0.627677 -0.161327 0.000086
3.841143 -0.424882 0.006160
0.486613 -0.080294 -0.003016
2.707987 0.314119 0.001054
0.793419 -0.307449 0.000166
0.148611 0.021660 -0.000240
1.293448 0.096538 -0.004288
0.535388 -0.492952 -0.002360
13.124453 -3.113032 5.225277
7.409890 -0.894007 0.004362
0.172476 -0.028899 -0.000476
0.248354 0.000938 0.001497
1.001048 0.748929 0.000353
2.038859 0.151047 0.001193
3.585044 -7.933706 0.052751
1.913079 1.186627 0.001687
4.719940 1.642310 0.000184
0.940483 0.588384 0.006595
1.123945 -1.394127 0.013589
0.008429 0.000002 -0.001184
0.356360 -0.460205 0.008866
1.855847 -0.267470 1.629620
3.576014 -7.579418 0.044931
1.112026 0.092243 0.001042
1.995417 -0.103857 0.000863
1.176718 -1.499734 0.006582
1.271994 1.774766 0.007035
1.136902 0.156738 0.001066
2.679317 1.516529 -0.103619
1.457816 -1.005331 0.416108
31.653829 0.911603 -0.596487
1.466020 0.613314 -0.001073
1.860582 0.034536 -0.000198
1.892972 0.159299 0.000319
0.827341 1.142493 0.000309
0.025027 0.007407 -0.001036
1.539679 2.022062 0.025872
0.294964 -0.000690 0.003929
0.515820 0.007609 0.000153
0.756398 0.023968 -0.000656
1.100289 -0.161520 0.000599
0.073182 0.021035 -0.002838
1.090996 0.759761 0.000617
0.731227 0.121855 -0.002052
0.931249 0.180485 0.000994
0.942932 -0.179087 -0.000166
1.885571 -0.421117 0.041810
0.000860 0.002692 -0.002093
2.928812 -0.027804 0.087617
0.833936 1.011218 -0.002636
0.026072 0.007637 0.000780
8.279569 -0.181797 -0.003490
2.680871 -0.226803 0.001179
1.504546 -0.158419 -0.000660
1.241961 1.572749 0.000146
0.468573 -0.532060 -0.007482
-0.000363 0.000708 0.000127
0.762131 -0.586570 0.066050
0.895911 -0.335118 0.000341
2.693937 -0.237405 0.000825
0.537620 -0.558259 0.008316
1.346971 1.148306 0.000013
3.040083 -0.995289 0.503611
0.962101 0.827972 0.000320
0.790298 0.485669 -0.000153
1.227939 0.507378 -0.001733
1.384117 -0.268668 -0.004117
1.655091 0.038453 -0.000126
0.104552 -0.000267 -0.000480
0.062509 0.010061 -0.001393
0.012112 0.001963 0.000287
2.453303 1.743009 -0.094087
1.476871 0.138899 0.008328
0.679290 -0.004482 0.000894
0.552808 0.098748 0.000095
2.587165 0.062270 -0.000026
2.125338 0.288040 -0.001163
-1.565472 -5.980542 -0.426586
1.169484 0.914760 0.004412
7.513059 -0.665613 0.008884
2.524283 -0.222066 -0.001229
2.523699 -0.298102 -0.067189
0.690491 0.017466 0.000040
3.185920 1.230118 0.007685
1.155705 1.702716 -0.006327
2.066892 0.271358 0.001763
0.797800 -0.156807 0.000434
3.676994 -3.608010 0.014476
2.239784 0.156083 0.000091
0.602611 -0.001181 0.004834
0.287640 0.099365 0.012837
1.608606 0.010694 0.001709
1.259506 0.781060 0.003020
2.032159 1.145264 0.158336
3.753774 -0.638023 0.020000
1.850747 0.224344 -0.004187
0.687716 1.083338 -0.001716
1.194152 -0.703864 0.004668
0.525996 1.018082 -0.008037