<VTKFile type='UnstructuredGrid' version='1.0' byte_order='LittleEndian' header_type='UInt64'>
<UnstructuredGrid>
<Piece NumberOfCells='500' NumberOfPoints='500'>
<Points>
<DataArray NumberOfComponents='3' type='Float32' Name='Position' format='ascii'>
537.765808 189.472281 -4.705287
1029.059357 188.209033 -16.808274
-204.235380 360.791140 -6.047659
597.630678 262.156375 -6.417615
1029.278797 232.304881 -20.074967
-170.509918 116.452378 -2.177688
1029.253611 152.748402 -21.930599
817.368284 240.230691 -5.715290
535.177382 193.919378 -4.367984
-66.900721 285.950986 -5.069322
1029.136333 154.676584 -29.201451
53.010863 144.782491 -29.559324
-115.995359 224.322813 -6.134624
558.544806 103.884792 -4.406929
591.737699 216.784810 -4.384877
1029.359902 252.147987 -15.006536
868.922899 177.413357 -6.566087
1029.087137 262.783777 -11.868301
-147.570378 318.596403 -6.876979
1029.193912 138.980634 -19.474711
843.938264 156.324370 -13.113761
327.375035 28.579047 -4.352747
1029.076102 228.539705 -26.569211
460.842540 396.382740 -3.879550
1029.103216 249.678682 -17.080837
1028.990499 208.533237 -16.447437
975.410937 176.611490 -17.419178
1029.136178 186.426719 -8.694585
69.348490 270.996861 -37.571565
763.519769 334.681135 -7.608983
609.076144 215.356988 -12.313828
395.970523 53.374245 -0.135630
1029.231420 262.000992 -8.732897
1029.083701 205.611464 -10.271489
422.306524 386.274159 -3.543799
820.378711 188.739020 -7.863072
1029.074164 155.183680 -27.112406
1029.321351 153.281068 -16.377951
487.154363 123.679751 -32.095615
1028.982668 142.206514 -26.628187
861.563856 93.207180 -6.161990
579.461109 117.941092 -2.780380
243.324286 184.148149 -37.058991
1029.147816 142.387907 -29.713177
720.329399 214.033926 -17.614111
-270.823990 218.222350 -37.640142
36.622931 162.720567 -35.119789
850.648890 214.179746 -8.987132
1029.339088 256.934836 -22.392138
645.083827 188.962596 -6.889664
1029.096555 251.048780 -9.627166
680.482388 251.532323 -5.682569
1029.044092 190.888146 -17.070591
187.513669 207.584836 -37.274302
-491.840360 186.620279 -2.007775
1029.140656 185.673421 -7.749712
467.931756 278.597902 -3.403107
-238.194056 181.872094 -31.281647
1029.281029 251.617953 -16.541149
629.820200 9.355871 -11.697757
192.565859 177.445848 -34.039964
1029.144067 251.298274 -9.433218
608.588455 387.873156 -8.333495
816.967409 185.076520 -10.617688
1029.099325 207.296483 -29.207397
43.724559 252.545202 -37.414568
505.682745 108.503715 -36.527540
1029.003818 260.121252 -19.353480
1029.219105 141.565174 -7.227381
1029.030335 140.847806 -10.327024
1029.210581 151.177371 -10.058554
-255.352256 181.898954 -34.776138
422.743582 386.163063 -3.664093
1029.370072 249.889205 -17.917543
513.689685 206.966018 -3.880767
569.067646 205.155921 -30.388281
830.138712 214.784311 -28.972023
1029.088630 226.583231 -26.791639
632.914911 191.557489 -8.004444
623.594723 181.835378 -13.366046
612.309214 60.353071 -6.148816
1029.075219 199.084609 -13.594524
1029.306689 250.607125 -21.757990
1029.275264 140.263570 -17.033113
1029.110714 228.986199 -22.802082
560.514387 108.449585 -4.197242
1029.118126 264.933374 -10.231840
1029.150350 191.275146 -16.086105
1029.304192 140.303527 -20.675616
1029.296586 152.742705 -21.728450
296.134269 219.961080 -35.184605
1029.317875 251.504023 -16.457303
1029.142010 196.584875 -14.344229
1029.292726 155.217574 -29.018318
1029.213633 188.409014 -16.858498
344.731658 236.788658 -2.543659
243.772954 198.458654 -2.529466
718.938985 252.002528 -6.203401
1029.337316 249.376128 -23.538960
1029.006290 140.497051 -6.606818
1029.101994 154.322595 -29.456101
-6.917358 350.821722 -12.011418
1029.023898 231.951962 -20.916878
-432.688923 176.899962 -26.651793
-365.537063 249.295853 -20.084064
1029.244989 230.300666 -9.687840
960.920915 178.114587 -20.545206
1029.318341 165.992030 -17.959244
-290.153674 261.008746 -19.865967
1028.977543 140.299234 -17.001177
1029.189046 140.141349 -19.420439
-501.736200 192.405568 -9.566233
269.738584 304.236553 -3.331210
1029.088515 191.145182 -20.070877
1029.119364 214.611647 -7.296110
1029.162892 231.219450 -28.952026
365.237258 73.437610 -19.735932
1029.069190 250.884586 -9.429735
-190.820396 367.260594 -5.558059
1029.161448 191.361488 -22.229912
33.167578 127.576624 -35.832102
815.520389 169.275844 -4.863525
1029.203531 259.133438 -14.979347
1029.386622 140.349597 -17.517165
753.426056 213.843313 -8.809608
122.313783 222.310579 -33.775364
377.639320 41.467018 -2.348081
614.500569 213.617722 -7.167998
1029.257480 229.715106 -21.899225
1029.221177 141.549552 -28.168380
60.820802 190.003537 -4.828080
-214.685605 214.231223 -5.419201
1029.184340 250.622315 -9.354484
1029.115912 138.104862 -11.754595
1029.020587 188.147850 -23.823336
1029.259073 166.069571 -28.080659
1029.121508 190.466885 -8.136797
965.912108 218.758500 -17.912624
422.237684 386.356569 -3.913509
-217.412905 212.810569 -3.962269
1028.976683 198.275371 -20.143932
1029.216848 231.067388 -27.441933
552.876523 147.319849 -36.489453
1029.134359 189.002731 -8.993922
1028.982673 228.031097 -11.093356
691.954150 351.051581 -6.524594
570.153516 8.194482 -20.112117
1029.064718 230.128527 -9.890916
1029.261154 171.158954 -29.184869
381.472231 52.266270 -10.001146
1029.152980 136.636137 -10.985803
785.523258 314.880403 -6.151361
1029.072949 189.720784 -13.672791
1029.126679 229.823613 -11.368067
1029.116635 266.379400 -22.171789
288.650339 350.586187 -13.591947
1029.194718 140.926378 -10.790143
-129.630910 179.998671 -31.613812
310.351661 154.460001 -2.331058
327.344826 221.412473 -5.506726
748.493539 219.992831 -12.377875
243.665325 308.006658 -13.313377
1029.165082 249.277036 -18.436584
1029.236544 229.448986 -17.039859
566.237351 94.250306 -2.179642
973.359157 215.408314 -13.978326
1029.162656 250.509853 -9.214404
313.552215 169.798410 -26.642132
515.378848 3.917637 -13.240897
590.971681 10.386116 -12.632946
-83.171532 387.779866 -18.886927
1028.993105 141.600352 -27.791848
1029.312762 229.305865 -15.668280
665.835396 225.280072 -4.431298
1029.207264 189.143456 -11.935037
834.196259 181.215951 -12.317461
-521.952499 274.729551 -37.154720
1029.232534 189.628657 -19.390733
798.729590 188.351846 -9.515799
1029.259166 229.986926 -17.220021
1029.103068 198.247599 -27.320136
1028.989402 252.799752 -25.582654
1029.160703 187.417509 -7.500706
1029.086343 261.955222 -10.171866
90.143815 179.459411 -26.184288
1029.196213 265.861447 -23.563606
1029.060599 250.741090 -23.158830
759.574099 334.451982 -11.242676
-236.895913 175.682608 -19.968429
-188.274625 307.198065 -3.554696
1029.184939 230.710144 -21.207296
1029.139103 188.001014 -24.091368
1029.296602 165.116357 -11.684768
713.323531 213.563182 -28.543792
269.558783 287.827163 -2.723943
1029.246652 152.097065 -21.274371
1029.238727 166.185289 -18.220476
612.986090 6.408597 -12.423627
1029.317852 166.310171 -11.196974
1029.074538 141.753036 -28.112455
1028.978325 226.681346 -19.098767
1029.070636 229.001683 -26.946571
264.158193 280.598272 -34.893143
1029.076318 154.088305 -26.648681
718.007853 35.845019 -7.543878
1029.134247 165.425647 -17.916420
438.535831 32.758837 -1.444767
1028.993193 251.027087 -9.360745
1029.191202 138.906774 -12.100933
-174.667661 179.692484 -2.642413
790.843373 212.671420 -15.948524
1028.987540 207.207378 -15.083185
1029.256612 249.121303 -18.632310
1029.083419 261.565138 -18.628778
1029.186294 141.644426 -26.875536
1029.125480 163.915666 -20.865933
1029.067550 187.903334 -11.437351
712.206287 213.623734 -28.246153
1028.977323 191.701105 -10.560304
-2.833992 60.170125 -34.601779
1029.130325 227.908705 -11.363294
567.154068 162.375168 -23.759992
31.464747 168.458254 -34.131926
1028.994581 191.539402 -20.807746
1029.089074 228.582486 -11.134421
1029.032689 139.337093 -11.491075
773.820557 180.903981 -26.375101
368.188065 62.907281 -30.879197
573.615676 8.116807 -20.156016
1029.118109 188.779216 -7.828990
1029.058995 154.448558 -27.720059
431.909000 254.555876 0.000849
461.849695 233.541146 -35.028763
1029.130825 162.909080 -15.085360
1029.287445 139.578995 -9.591735
286.030211 365.672596 -6.806634
1029.138655 191.579951 -20.417899
623.223488 220.601973 -25.753649
656.692581 180.630151 -19.839732
1029.215009 263.230013 -9.648705
343.629364 29.377821 -33.919758
855.484428 188.157256 -7.313423
1029.114565 185.116480 -26.917102
1029.027159 188.449629 -8.741109
1029.088616 227.990706 -18.525192
739.804290 169.864225 -23.851073
660.314129 190.942558 -29.981425
1028.971691 263.359154 -7.415883
862.778781 93.937719 -6.616472
-0.003131 157.548833 -34.210649
1011.544601 204.871594 -9.434720
1028.993735 205.652109 -16.980837
1029.000713 266.680231 -14.841078
1029.019230 264.554280 -17.341043
1029.020443 260.195748 -17.082613
499.842009 115.705671 -5.933335
967.695265 177.816199 -23.978827
-89.914501 389.825981 -30.664139
-0.124249 280.499659 -36.850755
604.525326 184.213704 -6.008533
316.781929 181.677280 -18.171069
523.931512 207.935972 -3.897613
1028.992364 140.724015 -18.226469
950.216767 190.409902 -14.542681
1029.288175 250.532170 -11.240318
1028.982169 140.578835 -8.523235
28.718325 212.384819 -36.862619
-499.030340 188.833334 -24.995350
1028.991480 184.793799 -26.995024
-130.954775 283.615479 -4.245271
1029.263509 251.378450 -21.648380
-405.771671 126.010797 -35.884885
1029.055936 181.494904 -18.997324
311.013133 157.196004 -10.828683
1029.168282 189.604127 -16.148881
-120.443826 174.422821 -26.127102
1029.060040 188.469406 -26.483053
1029.156936 166.796368 -19.504463
1029.062033 251.332961 -17.754174
794.473722 219.541970 -19.291154
1029.058731 251.612451 -21.507725
1029.209896 251.530546 -18.765869
1029.226357 141.141672 -26.962504
1029.035831 258.818714 -21.723534
1029.137454 191.840832 -7.148699
-0.253698 157.099743 -33.716641
1028.992617 143.275617 -33.765066
241.511007 289.776357 -3.919139
1029.052570 231.238678 -23.593649
793.632618 243.051924 -26.300948
738.571818 317.767311 -6.184380
1029.019086 186.784368 -8.920433
1029.062089 229.606706 -11.842059
-492.928138 185.857034 -3.753458
56.654219 167.734034 -33.878885
796.390296 187.221070 -29.811878
1029.055737 139.105929 -11.640209
146.200125 175.978936 -31.300454
1029.084872 192.212440 -20.238293
-244.598739 212.343719 -5.091604
-47.852761 211.244305 -13.004112
1028.996143 151.715862 -17.273462
1028.994285 231.174448 -6.028807
411.591621 245.039275 -3.410562
572.358960 210.556020 -4.657232
1029.256785 153.702561 -22.613375
1029.274629 189.295571 -19.419725
991.251098 275.245898 -15.416290
65.696642 190.614745 -33.512410
1029.096721 252.600993 -23.946544
1029.235200 153.879772 -27.568629
-275.427276 212.589123 -36.407164
349.005459 368.198405 -26.814343
1029.273908 151.732683 -17.452964
1029.014351 139.407205 -11.818104
-173.972510 215.922039 -4.409856
1028.984348 184.826144 -32.941579
563.426747 111.776910 -3.647203
1028.980649 249.835231 -21.175183
754.500293 187.920784 -11.259081
1029.188393 230.634547 -28.444128
1029.080799 230.197874 -9.454699
621.190057 214.643059 -30.794639
626.661217 383.042462 -7.448620
486.912645 65.815248 -28.934502
1029.008500 206.564596 -15.792315
531.114736 127.513456 -2.345756
1029.067852 141.603446 -27.818469
1029.069269 165.176413 -18.524279
1029.133526 191.427176 -10.540003
202.646505 188.154891 -3.118769
-82.424673 175.936237 -5.414372
589.008207 6.081598 -25.525250
1029.220334 140.786220 -22.054353
133.783049 196.747314 -37.723733
1029.175277 141.288491 -25.554240
432.671188 70.838922 -18.956292
845.519500 243.117523 -34.710403
609.398181 119.570135 -4.715481
1029.228811 229.056026 -21.423484
1029.263211 229.727649 -8.828450
250.451552 204.364231 -32.071732
1029.255636 140.847097 -10.347196
1029.144526 262.952322 -22.063480
197.411422 168.958776 -34.227616
1029.093018 189.431262 -22.359625
209.971104 215.794009 -2.187848
1029.246426 229.393185 -16.587050
525.468719 164.259866 -24.964507
775.107162 176.932009 -11.081446
1029.146176 187.848913 -9.040993
1029.240783 141.515258 -27.379984
-258.782282 347.706619 -5.932047
1029.025452 191.423095 -15.451683
325.183929 337.569663 -5.897396
-182.231456 219.471276 -26.126839
541.306209 5.017695 -10.137980
1029.083022 262.773429 -19.497108
1029.086616 250.371744 -7.973811
1029.037398 262.781573 -26.167907
1029.137774 227.226450 -10.712844
1029.144133 141.824809 -12.094427
996.168039 271.599026 -7.650348
1029.072346 230.843770 -24.585391
189.098911 157.605821 -32.394820
598.702331 5.947083 -11.692608
538.226459 161.559837 -22.602000
383.695658 264.384889 -20.004191
-161.719690 113.086494 -26.084864
685.250330 128.156721 -6.086716
697.410069 168.668942 -23.402218
-115.819439 221.310796 -5.559820
1029.220458 185.847851 -11.251454
1029.284457 252.216365 -23.460776
1029.129728 164.701498 -20.667179
834.806982 177.405630 -19.513978
389.071831 288.237926 -6.816309
1028.998408 152.824558 -6.281295
1029.029557 189.622144 -9.059488
1029.097936 262.061277 -16.866182
1029.292222 139.341657 -20.537809
1029.028994 140.404660 -8.938870
604.731279 10.620193 -6.912772
1029.005844 140.255329 -9.204981
-500.867422 193.243055 -15.970765
422.364659 386.234165 -5.736371
1029.087163 227.049554 -11.271518
673.779147 187.731030 -19.198676
773.755125 344.026843 -18.108598
-51.115744 12.144784 -11.918972
1029.284670 252.620977 -25.589771
-323.155210 212.335307 -37.888549
1029.146218 191.360374 -20.366622
1029.105913 190.489401 -8.928432
1028.984297 152.167014 -15.410153
455.306638 233.661105 -30.800779
1028.977495 139.629717 -6.673073
70.556264 327.060066 -34.651500
1029.217982 189.239624 -24.197824
-173.611567 177.073541 -5.573916
719.723816 213.991105 -9.238878
-254.695218 50.145643 -26.310954
1029.331110 152.525238 -20.330589
88.907211 300.814225 -36.136371
1029.187656 251.079710 -22.841616
1029.318670 140.222168 -7.695200
486.352666 112.684907 -5.865102
1029.189180 152.203793 -9.786901
816.915802 185.126228 -10.619358
1029.020630 165.105675 -19.151886
866.865010 178.506651 -6.811936
1029.190473 154.549839 -27.821762
1029.119299 138.490448 -7.169665
-148.626967 380.376835 -12.660101
1028.992859 189.529076 -21.214293
1029.200837 141.506837 -28.207214
1029.122687 189.627835 -12.980992
993.132764 237.450701 -8.108035
311.852794 150.468706 -10.237767
1029.067094 190.358882 -21.601804
1029.149717 228.931587 -26.989552
281.886726 164.314319 -35.702153
511.087530 345.667324 -6.539360
1029.126705 199.221430 -20.196635
1028.978204 191.616251 -5.973972
1029.154759 191.002642 -23.581673
1029.118563 166.532241 -28.691753
589.816739 227.771172 -4.433972
1029.114841 139.297521 -11.567960
411.558032 245.110662 -3.276845
1029.136270 191.163161 -23.318089
589.996576 6.712874 -10.657086
1029.105731 205.069380 -15.635904
1028.991614 151.329544 -19.248305
-501.143021 193.453483 -16.472095
312.533385 137.360882 -37.122815
1029.120078 187.702432 -9.310782
1029.163817 184.148452 -21.974278
1029.312471 248.234907 -9.873754
369.822731 43.546371 -15.385678
1029.328978 136.843542 -18.881703
806.405224 300.852980 -24.873171
1029.222021 229.310936 -11.098716
1029.172426 140.413768 -21.018412
624.626825 164.343234 -16.954246
1029.118423 167.132526 -29.081801
1029.032436 162.086172 -8.090933
1029.041121 142.217793 -6.243565
1029.236015 251.014534 -17.909152
294.245244 225.077539 -37.146961
487.545777 233.798940 -1.671852
1028.977966 139.590846 -10.513834
1029.013381 155.959542 -27.775785
517.551220 182.858141 -26.251919
296.429664 226.011252 -36.842068
1029.030631 206.195502 -29.210784
573.589907 167.921190 -6.920629
1029.122752 191.332256 -15.803695
1029.022018 152.098673 -9.721617
1028.979961 185.456998 -7.675500
4.466192 64.655480 -32.016071
1029.034602 250.235039 -24.035320
792.873572 180.306823 -12.186999
372.311113 58.787897 -12.371025
-196.674269 219.051895 -6.155189
1029.121923 139.486113 -10.572183
895.419637 102.092986 -6.166816
1029.016906 187.725508 -9.274138
577.014925 218.742730 -27.900035
1029.281845 164.317919 -10.568704
58.780673 276.526023 -37.649802
701.333311 321.099592 -5.992239
78.016611 304.900071 -35.938642
483.846834 4.184335 -8.658620
400.884835 273.474580 -5.355285
1029.080642 139.809185 -8.448109
520.589106 131.284333 -2.369116
1029.190996 251.339016 -24.093351
734.854319 214.190562 -8.288580
-127.854181 213.903416 -19.288172
121.916341 230.763696 -37.242570
1029.091622 188.026010 -8.426024
475.873490 84.247772 -1.454472
1029.233175 246.857364 -23.058501
618.136203 383.614978 -26.115364
1029.182799 226.565878 -26.855878
655.588785 165.714800 -24.403164
1029.001557 265.025473 -24.043119
966.058046 172.906140 -22.491656
1029.077783 191.459570 -6.368736
1029.147602 265.728428 -24.808093
1028.979811 266.614511 -21.884949
654.033407 380.635977 -23.800420
89.797067 178.253157 -26.322481
378.075462 7.721897 -0.963226
1029.072314 141.391280 -11.738849
612.420227 66.527085 -5.238321
1029.042814 142.222528 -5.287601
686.285620 320.803160 -6.893049
893.540110 214.204625 -17.703257
</DataArray>
</Points>
<PointData>
<DataArray NumberOfComponents='1' type='Int32' Name='ParticleType' format='ascii'>
1
1
1
1
1
1
1
1
1
1
1
1
1
1
1
1
1
1
1
1
1
1
1
1
1
1
1
1
1
1
1
1
1
1
1
1
1
1
1
1
1
1
1
1
1
1
1
1
1
1
1
1
1
1
1
1
1
1
1
1
1
1
1
1
1
1
1
1
1
1
1
1
1
1
1
1
1
1
1
1
1
1
1
1
1
1
1
1
1
1
1
1
1
1
1
1
1
1
1
1
1
1
1
1
1
1
1
1
1
1
1
1
1
1
1
1
1
1
1
1
1
1
1
1
1
1
1
1
1
1
1
1
1
1
1
1
1
1
1
1
1
1
1
1
1
1
1
1
1
1
1
1
1
1
1
1
1
1
1
1
1
1
1
1
1
1
1
1
1
1
1
1
1
1
1
1
1
1
1
1
1
1
1
1
1
1
1
1
1
1
1
1
1
1
1
1
1
1
1
1
1
1
1
1
1
1
1
1
1
1
1
1
1
1
1
1
1
1
1
1
1
1
1
1
1
1
1
1
1
1
1
1
1
1
1
1
1
1
1
1
1
1
1
1
1
1
1
1
1
1
1
1
1
1
1
1
1
1
1
1
1
1
1
1
1
1
1
1
1
1
1
1
1
1
1
1
1
1
1
1
1
1
1
1
1
1
1
1
1
1
1
1
1
1
1
1
1
1
1
1
1
1
1
1
1
1
1
1
1
1
1
1
1
1
1
1
1
1
1
1
1
1
1
1
1
1
1
1
1
1
1
1
1
1
1
1
1
1
1
1
1
1
1
1
1
1
1
1
1
1
1
1
1
1
1
1
1
1
1
1
1
1
1
1
1
1
1
1
1
1
1
1
1
1
1
1
1
1
1
1
1
1
1
1
1
1
1
1
1
1
1
1
1
1
1
1
1
1
1
1
1
1
1
1
1
1
1
1
1
1
1
1
1
1
1
1
1
1
1
1
1
1
1
1
1
1
1
1
1
1
1
1
1
1
1
1
1
1
1
1
1
1
1
1
1
1
1
1
1
1
1
1
1
1
1
1
1
1
1
1
1
1
1
1
1
1
1
1
1
1
1
1
1
1
1
1
1
1
1
1
1
1
1
1
1
1
1
1
1
1
1
1
1
1
1
1
1
1
1
1
</DataArray>
<DataArray NumberOfComponents='1' type='Int32' Name='ParticleID' format='ascii'>
0
1
2
3
4
5
6
7
8
9
10
11
12
13
14
15
16
17
18
19
20
21
22
23
24
25
26
27
28
29
30
31
32
33
34
35
36
37
38
39
40
41
42
43
44
45
46
47
48
49
50
51
52
53
54
55
56
57
58
59
60
61
62
63
64
65
66
67
68
69
70
71
72
73
74
75
76
77
78
79
80
81
82
83
84
85
86
87
88
89
90
91
92
93
94
95
96
97
98
99
100
101
102
103
104
105
106
107
108
109
110
111
112
113
114
115
116
117
118
119
120
121
122
123
124
125
126
127
128
129
130
131
132
133
134
135
136
137
138
139
140
141
142
143
144
145
146
147
148
149
150
151
152
153
154
155
156
157
158
159
160
161
162
163
164
165
166
167
168
169
170
171
172
173
174
175
176
177
178
179
180
181
182
183
184
185
186
187
188
189
190
191
192
193
194
195
196
197
198
199
200
201
202
203
204
205
206
207
208
209
210
211
212
213
214
215
216
217
218
219
220
221
222
223
224
225
226
227
228
229
230
231
232
233
234
235
236
237
238
239
240
241
242
243
244
245
246
247
248
249
250
251
252
253
254
255
256
257
258
259
260
261
262
263
264
265
266
267
268
269
270
271
272
273
274
275
276
277
278
279
280
281
282
283
284
285
286
287
288
289
290
291
292
293
294
295
296
297
298
299
300
301
302
303
304
305
306
307
308
309
310
311
312
313
314
315
316
317
318
319
320
321
322
323
324
325
326
327
328
329
330
331
332
333
334
335
336
337
338
339
340
341
342
343
344
345
346
347
348
349
350
351
352
353
354
355
356
357
358
359
360
361
362
363
364
365
366
367
368
369
370
371
372
373
374
375
376
377
378
379
380
381
382
383
384
385
386
387
388
389
390
391
392
393
394
395
396
397
398
399
400
401
402
403
404
405
406
407
408
409
410
411
412
413
414
415
416
417
418
419
420
421
422
423
424
425
426
427
428
429
430
431
432
433
434
435
436
437
438
439
440
441
442
443
444
445
446
447
448
449
450
451
452
453
454
455
456
457
458
459
460
461
462
463
464
465
466
467
468
469
470
471
472
473
474
475
476
477
478
479
480
481
482
483
484
485
486
487
488
489
490
491
492
493
494
495
496
497
498
499
</DataArray>
<DataArray NumberOfComponents='1' type='Int8' Name='IsActive' format='ascii'>
1
0
1
1
0
1
0
1
1
1
0
1
1
1
1
0
1
0
1
0
1
1
0
1
0
0
1
0
1
1
1
1
0
0
0
1
0
0
1
0
1
1
1
0
1
1
1
1
0
1
0
1
0
1
1
0
1
1
0
1
1
0
1
1
0
1
1
0
0
0
0
1
0
0
1
1
1
0
1
1
1
0
0
0
0
1
0
0
0
0
1
0
0
0
0
1
1
1
0
0
0
1
0
1
1
0
1
0
1
0
0
1
1
0
0
0
1
0
1
0
1
1
0
0
1
1
0
1
0
0
1
1
0
0
0
0
0
1
0
1
0
0
1
0
0
1
1
0
0
0
0
1
0
0
0
1
0
1
1
1
1
1
0
0
1
1
0
1
1
1
1
0
0
1
0
1
1
0
1
0
0
0
0
0
1
0
0
1
1
1
0
0
0
1
1
0
0
1
0
0
0
0
1
0
1
0
1
0
0
1
0
0
0
0
0
0
0
1
0
1
0
1
1
0
0
0
1
1
1
0
0
0
1
0
0
1
0
1
1
0
1
1
0
0
0
1
1
1
1
1
1
0
0
0
0
1
1
1
1
1
1
1
0
1
0
0
1
1
0
1
0
1
0
1
0
1
0
0
0
1
0
0
0
0
0
1
0
1
0
1
1
0
0
1
1
1
0
1
0
1
1
0
0
0
1
0
0
1
1
0
0
1
1
0
0
1
0
1
0
1
0
0
1
1
1
0
1
0
0
0
1
1
1
0
1
0
1
1
1
0
0
1
0
0
1
0
1
0
1
1
0
0
1
0
1
1
1
0
0
0
0
0
1
0
1
1
1
1
1
1
1
1
0
0
0
1
1
0
0
0
0
0
1
0
1
0
0
1
1
1
0
1
0
0
0
1
0
1
0
1
1
1
0
1
0
0
1
0
1
0
1
0
0
1
0
0
0
1
1
0
0
1
1
0
0
0
0
1
0
0
0
1
0
0
1
1
0
0
0
1
0
1
0
0
1
0
0
0
0
1
1
0
0
1
1
0
1
0
0
0
1
0
1
1
1
0
1
0
1
0
1
1
1
1
0
0
1
0
1
1
1
0
1
0
1
0
1
0
1
0
0
0
1
1
0
0
1
0
1
1
</DataArray>
<DataArray NumberOfComponents='1' type='Int32' Name='ParticleTetID' format='ascii'>
64855
-61515
9847
73207
-58962
6858
-66558
57799
68420
20251
-66561
99431
12691
66276
62750
-64917
58465
-68099
7167
-66554
62878
36433
-58961
81758
-64916
-70586
60758
-61512
30004
73587
67415
163114
-68099
-72204
-112396
63057
-66561
-66555
54842
-66557
57187
73116
33659
-66560
63026
9502
30993
69089
-64920
72687
-64914
56701
-61515
37815
19262
-61512
53930
7304
-64917
63491
25053
-64914
56937
63059
-72213
34216
68957
-64917
-66552
-66551
-66552
7287
-112396
-64916
66404
75002
67784
-58965
72689
61224
72469
-72207
-64920
-66554
-58961
63990
-68099
-61515
-66557
-66558
25197
-64917
-72207
-66561
-61515
27974
24680
66907
-64919
-66548
-66561
21047
-58962
3808
5067
-58955
59247
-59786
6361
-66554
-66554
2273
29702
-61518
-70584
-58965
85776
-64914
9739
-61518
46510
57602
-64917
-66554
62969
40066
-146594
61205
-58962
-66560
34615
7400
-64914
-66588
-61518
-59791
-61512
61640
-112396
7400
-72210
-58965
69173
-61512
-58955
58843
61389
-58955
-59791
-156163
-66588
74125
-61515
-58955
-68105
30066
-66551
13045
49808
48421
65218
33934
-64916
-58958
72379
65868
-64914
45154
69394
61366
3499
-66560
-58958
65162
-61511
67036
10690
-61514
63167
-58958
-72213
-64919
-61512
-68099
98736
-68105
-64919
73589
7297
6644
-58962
-61518
-59783
63032
32563
-66558
-59786
65831
-59783
-66560
-58958
-58965
32577
-66557
66117
-59786
87665
-64914
-66551
7382
-63044
-72207
-64916
-68102
-66561
-59788
-61511
63032
-61512
19745
-58955
72045
37221
-61518
-58955
-66551
63082
85117
61389
-61512
-66561
-136563
53134
-59785
-66551
33681
-61518
61211
63151
-68099
32685
68835
-61521
-61512
-58958
71416
63158
68099
57187
12364
59855
-72207
-68103
-68102
-64917
51571
58618
11750
5614
65900
43694
64892
-66554
67346
-64913
-66551
32884
19217
-61521
4628
-64920
2213
-61514
45167
-61515
5393
-61517
-59786
-64916
63043
-64920
-64916
-66561
-64920
-61512
12365
-66564
33930
-58961
60904
69895
-61512
-58955
19262
26765
63176
-66551
26042
-61518
9541
10498
-66555
-58952
-126563
59708
-66558
-61514
75661
34629
-64919
-66561
7433
43554
-66555
-66551
7526
-61520
77168
-64920
63203
-58965
-58955
61213
57515
52464
-72207
73188
-66560
-59786
-61512
27918
20108
61372
-66557
31337
-66557
86325
63917
76502
-58962
-58955
25285
-66551
-68105
33351
-61518
91606
-58958
60977
65399
-61512
-66561
7850
-61515
29521
7534
61726
-68102
-64914
-68105
-58955
-66551
79583
-58961
44564
70852
58221
82198
8812
68491
59068
12691
-61511
-64920
-59788
68912
82792
-66548
-61512
-68102
-66557
-66551
70851
-66551
2276
-112399
-58955
63134
63260
5531
-64919
10780
-61518
-61512
-66555
53240
-66552
37565
-61518
9379
63023
7786
-66558
42461
-64920
-66551
54002
-66552
63059
-59786
59421
-66561
-66588
7871
-61518
-66560
-61511
78465
43709
-61518
-58965
25955
66331
-72210
-61509
-61518
-59791
76322
-66551
-126559
-61518
61367
-72207
-66554
2276
51009
-61512
-61518
-64913
86156
-66591
62219
-58955
-66557
57120
-59791
-59782
-66548
-64916
25199
51894
-66551
-66561
66934
25199
-72213
73767
-61515
-66552
-61512
28346
-64919
63167
84631
7490
-66551
58699
-61512
79736
-59783
29932
64244
27665
52941
-127033
-66551
78246
-64919
62933
17377
40138
-61512
52058
-64919
57520
-58965
57791
-68105
58619
-61508
-68105
-68106
69977
98736
-153844
-66551
73927
-66548
64227
71738
</DataArray>
<DataArray NumberOfComponents='3' type='Float32' Name='vels' format='ascii'>
0.481522 0.001172 -0.000089
2.941750 0.743093 0.251364
0.976123 0.265146 0.000367
1.113640 0.000687 0.001134
4.011166 -0.808442 0.007605
0.287240 -0.044258 -0.000206
5.291425 0.658114 0.015048
1.704820 -0.104646 -0.000670
0.143845 0.006366 0.000152
0.739600 0.158681 -0.006893
4.043204 0.516567 -0.062035
0.150059 0.250516 -0.000556
0.582287 0.004846 -0.000811
0.395060 0.473811 0.005523
0.006767 0.000014 -0.000283
4.781214 -0.633258 0.223552
0.078870 -0.010053 0.004729
1.841632 -0.359408 0.096556
0.944455 0.155432 0.001179
4.618366 0.202199 0.374453
0.201405 0.031684 0.000233
1.345416 -0.608489 0.019966
3.564954 -0.948543 -0.100939
0.005109 0.000097 0.001091
5.081494 -0.728568 0.061442
2.709453 -0.571234 0.037044
2.928734 0.139594 0.010346
2.291721 0.555347 0.251364
0.654004 -0.344430 0.000419
1.876876 -0.464877 0.000060
0.128235 -0.000037 -0.000162
0.707574 -0.705085 0.022512
3.213363 -0.761119 -0.003224
1.656845 -0.012767 0.231690
30.832558 8.406263 0.242404
0.797360 0.006870 -0.002469
3.361597 0.485264 0.057820
5.072144 0.616756 0.203979
0.009617 0.027041 -0.000738
4.822554 0.159554 -0.071552
0.690067 0.150481 -0.003474
0.527663 0.119855 0.000499
1.001676 0.234868 0.000909
3.522981 0.454183 -0.022000
0.100338 -0.000119 -0.000053
0.016874 -0.000388 -0.000006
0.813194 0.893422 0.001730
0.255718 -0.000651 0.000972
5.038774 -0.652624 0.013047
0.360123 0.001548 0.000577
2.926561 -0.297746 0.581025
0.884028 -0.061497 -0.000972
2.831417 0.656188 0.157502
4.031357 0.123351 0.005023
0.001280 -0.000164 -0.000304
2.459462 0.587685 0.168515
1.284369 0.479006 -0.132441
0.027470 -0.000032 0.000841
4.325011 -0.485807 0.474073
0.070325 0.020584 0.000836
2.449929 -0.073292 -0.003301
3.009809 -0.323029 0.523657
0.922657 -0.037914 -0.000822
0.007942 0.000008 0.001659
1.625300 0.032475 -0.102624
0.840091 -0.218155 -0.000104
0.083309 0.098198 -0.000360
4.340364 -0.231916 0.365021
3.114425 0.129711 0.500337
4.121013 0.480241 0.104173
3.314428 0.340714 0.441299
0.729302 -0.006407 0.000940
46.675339 14.517866 -0.076229
4.966831 -0.741021 0.103249
0.416624 -0.102639 0.000162
0.016398 0.048438 -0.009658
0.100826 -0.000520 -0.000584
4.058145 -0.762731 -0.344492
1.082894 0.010726 0.000443
0.016246 -0.000037 0.000242
0.718213 0.043002 0.000352
2.447300 0.404613 0.136695
4.955756 -0.666599 0.026369
5.270291 0.597518 0.093265
3.790543 -0.755850 0.004429
0.518634 0.491390 0.003431
3.198346 -0.576469 0.091015
2.891380 0.658313 0.072510
4.708169 0.714293 0.041555
5.286538 0.662013 0.016323
0.664672 0.200464 0.002664
4.335292 -0.493674 0.469468
2.376679 0.415278 0.303110
3.978817 0.514039 -0.035953
2.925429 0.736889 0.253986
0.437605 0.205743 0.002857
0.748226 0.274552 -0.000861
1.288371 -0.148930 0.001400
4.657912 -0.665986 -0.017331
0.402313 0.016930 0.069481
4.122142 0.520750 -0.092827
0.781875 -1.037625 0.004830
4.068510 -0.838672 0.002245
0.005929 -0.000039 -0.000767
0.084170 0.013698 0.000405
3.529941 -0.711878 0.030954
3.456548 0.101749 0.006160
5.068028 0.739679 0.098900
0.101933 0.016299 0.000228
5.282705 0.607003 0.090999
4.672356 0.220515 0.340548
0.000670 0.002511 0.000603
0.261773 0.285181 0.000359
2.719856 0.689432 0.014472
1.875758 -0.371275 0.170103
3.526443 -0.813141 -0.314200
0.006031 -0.002618 -0.002453
2.977139 -0.317598 0.549789
0.753779 0.212315 -0.002839
2.856396 0.655576 -0.021302
0.423884 0.751766 0.000358
0.223724 0.022364 0.000560
5.097804 -0.739710 -0.004191
5.187976 0.534039 0.131804
0.161129 -0.000291 0.000376
0.010758 0.009231 0.000009
0.063052 -0.112684 0.126129
0.187076 0.000498 0.001195
3.941319 -0.939718 0.019078
3.094111 0.466580 0.051646
2.983752 0.819370 0.018878
0.077140 0.000159 -0.001215
2.947628 -0.317004 0.559127
3.315421 0.229466 0.303735
3.114699 0.812712 -0.006021
3.981705 0.784788 -0.179278
2.397503 0.576482 0.045044
0.312558 -0.001234 0.000161
46.605008 17.425592 -0.121316
0.118372 0.000146 -0.000886
2.453705 0.036037 -0.002453
3.273935 -0.703619 -0.146819
0.521724 0.171699 0.000046
2.267504 0.537684 0.170558
3.031390 -0.650702 0.168210
0.854095 -0.205044 -0.001979
0.052421 0.000029 -0.000958
3.485382 -0.705401 0.047642
4.244217 0.718171 -0.088138
0.078912 -0.035162 -0.038296
3.309975 0.272851 0.268077
1.102031 -0.218802 -0.000027
3.143853 0.750221 0.009430
3.065246 -0.673178 0.198509
4.241233 -0.744797 0.007929
0.857105 0.463472 0.000672
3.991307 0.425104 0.155119
0.820980 -0.000650 -0.000900
0.083311 -1.861773 0.027798
0.535825 0.451971 0.005522
1.341084 -0.021391 -0.001833
1.060260 1.288387 0.001328
4.864729 -0.743999 0.144699
4.023324 -0.834694 0.046985
0.297708 0.356281 0.018202
0.919388 -0.011511 0.003297
2.983754 -0.330680 0.536378
-0.000364 -0.002223 -0.001132
0.043881 0.000119 -0.000632
0.275897 0.001773 -0.000067
1.101849 -0.022791 0.000729
2.912069 0.446903 0.058844
4.195891 -0.823559 0.007726
0.841674 -0.021040 -0.000513
3.421469 0.801853 0.232091
0.802845 0.006376 0.000327
0.000577 0.000063 0.000127
3.917611 0.961390 0.066384
0.043417 0.000076 0.000972
3.998002 -0.839101 0.052347
2.110943 0.365026 -0.216448
4.558290 -0.718325 -0.153658
2.517882 0.602668 0.087560
2.602964 -0.618944 0.038887
-0.002437 0.002104 -0.000130
3.746715 -0.624846 0.010220
4.537418 -0.639668 -0.001990
2.356135 -0.598479 0.000710
0.022771 -0.000033 -0.000637
0.338038 0.069090 -0.001280
4.022468 -0.876011 0.007542
3.114020 0.835475 0.004567
4.032579 0.575637 0.282121
0.042073 -0.000182 -0.000148
0.852225 0.881693 0.000653
5.273003 0.663612 0.018242
5.040750 0.742126 0.111195
0.019739 0.000098 -0.001600
4.238118 0.605920 0.212747
3.032198 0.458377 0.052126