<VTKFile type='UnstructuredGrid' version='1.0' byte_order='LittleEndian' header_type='UInt64'>
<UnstructuredGrid>
<Piece NumberOfCells='500' NumberOfPoints='500'>
<Points>
<DataArray NumberOfComponents='3' type='Float32' Name='Position' format='ascii'>
515.590374 190.251442 -4.692760
1029.059357 188.209033 -16.808274
-221.170597 356.034036 -6.059641
564.875105 261.058146 -6.404100
1029.278797 232.304881 -20.074967
-183.545831 118.471804 -2.117739
1029.253611 152.748402 -21.930599
751.890640 245.416617 -5.734230
510.665268 195.605702 -4.491285
-101.762062 281.856185 -4.962874
1029.136333 154.676584 -29.201451
34.848254 96.782292 -29.630560
-160.056983 223.158645 -6.096769
540.087940 88.131800 -4.424005
576.786758 215.384114 -4.357452
1029.359902 252.147987 -15.006536
838.536301 176.558516 -6.561072
1029.087137 262.783777 -11.868301
-188.044485 311.842486 -6.840607
1029.193912 138.980634 -19.474711
809.046723 151.228647 -13.077043
303.005506 66.442081 -4.319855
1029.076102 228.539705 -26.569211
460.840813 396.385382 -3.915938
1029.103216 249.678682 -17.080837
1028.990499 208.533237 -16.447437
734.279548 170.442737 -17.539311
1029.136178 186.426719 -8.694585
33.282467 285.199891 -37.553845
652.673302 361.275308 -7.562296
601.070478 215.381708 -12.268674
307.888106 124.359154 -2.509131
1029.231420 262.000992 -8.732897
977.972531 218.270662 -9.818086
422.306524 386.274159 -3.543799
764.198087 188.001314 -7.866375
1029.074164 155.183680 -27.112406
1029.321351 153.281068 -16.377951
472.522038 99.400774 -32.439836
1028.982668 142.206514 -26.628187
767.191239 70.503890 -6.198701
553.921417 99.626023 -2.870839
68.551478 204.568295 -36.987856
1029.147816 142.387907 -29.713177
681.843389 214.396407 -17.549370
-271.662039 218.247184 -37.625699
6.552068 127.794453 -35.159954
795.726473 215.334253 -9.014321
1029.339088 256.934836 -22.392138
626.162227 188.880847 -6.909964
1029.096555 251.048780 -9.627166
621.017232 255.878567 -5.684933
1029.044092 190.888146 -17.070591
113.121952 227.929644 -37.166010
-491.789116 186.602857 -1.968807
1029.140656 185.673421 -7.749712
345.758411 305.251126 -5.528474
-264.621207 182.075738 -31.434746
1029.281029 251.617953 -16.541149
610.907430 6.485383 -11.700207
41.221170 196.023319 -33.993877
1029.144067 251.298274 -9.433218
553.200301 387.907616 -8.455651
782.758228 184.482843 -10.662806
1029.099325 207.296483 -29.207397
7.967130 259.341469 -37.414120
500.019390 101.814016 -36.577410
1029.003818 260.121252 -19.353480
1029.219105 141.565174 -7.227381
1029.030335 140.847806 -10.327024
1029.210581 151.177371 -10.058554
-300.456493 182.462658 -34.818508
422.743582 386.163063 -3.664093
1029.370072 249.889205 -17.917543
471.447577 225.713499 -3.425398
568.781558 204.263184 -30.097540
790.414030 215.492663 -28.867492
1029.088630 226.583231 -26.791639
609.183880 191.420665 -8.193460
623.068457 181.811443 -13.342739
550.402590 59.984332 -6.186372
1029.075219 199.084609 -13.594524
1029.306689 250.607125 -21.757990
1029.275264 140.263570 -17.033113
1029.110714 228.986199 -22.802082
529.903452 84.851651 -4.252719
1029.118126 264.933374 -10.231840
1029.150350 191.275146 -16.086105
1029.304192 140.303527 -20.675616
1029.296586 152.742705 -21.728450
166.284770 191.892537 -35.225521
1029.317875 251.504023 -16.457303
1029.142010 196.584875 -14.344229
1029.292726 155.217574 -29.018318
1029.213633 188.409014 -16.858498
311.256436 218.353435 -2.585928
87.379529 216.429855 -2.460567
656.214013 258.662127 -6.201880
1029.337316 249.376128 -23.538960
1029.006290 140.497051 -6.606818
1029.101994 154.322595 -29.456101
-58.075155 384.709877 -12.082293
1029.023898 231.951962 -20.916878
-432.619297 176.900230 -26.667312
-381.127608 247.042783 -20.003511
1029.244989 230.300666 -9.687840
775.911329 175.855491 -20.515650
1029.318341 165.992030 -17.959244
-301.257485 259.167450 -19.880293
1028.977543 140.299234 -17.001177
1029.189046 140.141349 -19.420439
-501.815207 192.413972 -9.658683
247.264841 276.235906 -3.315012
1029.088515 191.145182 -20.070877
1029.119364 214.611647 -7.296110
1029.162892 231.219450 -28.952026
365.108698 73.471424 -19.398303
1029.069190 250.884586 -9.429735
-214.605088 360.539529 -5.542714
1026.680618 190.791966 -22.210951
16.956885 96.899311 -35.861204
735.399437 163.797929 -4.911253
1029.203531 259.133438 -14.979347
1029.386622 140.349597 -17.517165
714.793017 214.425494 -8.833606
122.313556 222.313426 -33.795707
377.639320 41.467018 -2.348081
606.846004 213.623969 -7.194880
1029.257480 229.715106 -21.899225
1029.221177 141.549552 -28.168380
-0.882478 145.041574 -4.884539
-229.871016 214.092103 -5.379550
1029.184340 250.622315 -9.354484
1029.115912 138.104862 -11.754595
1029.020587 188.147850 -23.823336
1029.259073 166.069571 -28.080659
1029.121508 190.466885 -8.136797
912.776001 217.904177 -17.809791
422.237684 386.356569 -3.913509
-228.760040 212.640030 -3.885393
1028.976683 198.275371 -20.143932
1029.216848 231.067388 -27.441933
532.653843 135.855125 -36.494562
1029.134359 189.002731 -8.993922
1028.982673 228.031097 -11.093356
631.263474 364.372621 -6.529297
567.117335 8.165139 -20.080646
1029.064718 230.128527 -9.890916
1029.261154 171.158954 -29.184869
381.472231 52.266270 -10.001146
1029.152980 136.636137 -10.985803
706.111508 330.772907 -6.176767
1029.072949 189.720784 -13.672791
1029.126679 229.823613 -11.368067
1029.116635 266.379400 -22.171789
235.376732 290.284999 -13.599043
1029.194718 140.926378 -10.790143
-147.236137 180.030509 -31.621834
302.084084 200.913315 -2.891164
268.282376 210.823297 -5.553858
721.259632 220.229892 -12.388091
133.797126 221.956751 -8.594344
1029.165082 249.277036 -18.436584
1029.236544 229.448986 -17.039859
555.177750 86.933763 -2.643533
925.275265 215.383638 -13.845747
1029.162656 250.509853 -9.214404
313.617624 170.112499 -26.606238
512.015373 3.929068 -13.216659
553.310486 10.280718 -12.443081
-110.687726 387.806184 -18.921375
1028.993105 141.600352 -27.791848
1029.312762 229.305865 -15.668280
627.571581 225.878146 -4.413198
1029.207264 189.143456 -11.935037
811.181384 180.802923 -12.377749
-521.962722 274.740909 -37.146491
1029.232534 189.628657 -19.390733
760.778593 187.678771 -9.542882
1029.259166 229.986926 -17.220021
1029.103068 198.247599 -27.320136
1028.989402 252.799752 -25.582654
1029.160703 187.417509 -7.500706
1029.086343 261.955222 -10.171866
90.126299 179.408037 -26.213192
1029.196213 265.861447 -23.563606
1029.060599 250.741090 -23.158830
626.470411 365.683628 -11.242047
-238.657115 175.717015 -19.970123
-210.369283 303.182002 -3.495127
1029.184939 230.710144 -21.207296
1029.139103 188.001014 -24.091368
1029.296602 165.116357 -11.684768
678.973860 214.152738 -28.505084
244.269921 255.937489 -2.697802
1029.246652 152.097065 -21.274371
1029.238727 166.185289 -18.220476
594.938812 6.262677 -12.385955
1029.317852 166.310171 -11.196974
1029.074538 141.753036 -28.112455
1028.978325 226.681346 -19.098767
1029.070636 229.001683 -26.946571
228.287586 231.721656 -34.854844
1029.076318 154.088305 -26.648681
655.543433 18.365736 -7.568985
1029.134247 165.425647 -17.916420
310.801527 67.491201 -5.093580
1028.993193 251.027087 -9.360745
1029.191202 138.906774 -12.100933
-194.405247 180.065346 -2.618048
764.428407 213.138299 -15.905929
1028.987540 207.207378 -15.083185
1029.256612 249.121303 -18.632310
1029.083419 261.565138 -18.628778
1029.186294 141.644426 -26.875536
1029.125480 163.915666 -20.865933
1029.067550 187.903334 -11.437351
673.976591 214.200308 -28.214826
1028.977323 191.701105 -10.560304
-14.522963 38.455861 -34.487436
1029.130325 227.908705 -11.363294
499.432403 116.186093 -23.811397
-5.794805 133.897529 -34.146042
1028.994581 191.539402 -20.807746
1029.089074 228.582486 -11.134421
1029.032689 139.337093 -11.491075
755.294863 180.709332 -26.307432
348.657657 78.483123 -36.399748
569.817071 8.104208 -20.103129
1029.118109 188.779216 -7.828990
1029.058995 154.448558 -27.720059
431.909000 254.555876 0.000849
439.490657 238.164684 -9.450074
1029.130825 162.909080 -15.085360
1029.287445 139.578995 -9.591735
259.599975 348.379712 -6.832187
1029.138655 191.579951 -20.417899
604.861051 220.576239 -25.780539
624.593742 180.233454 -19.827020
1029.215009 263.230013 -9.648705
308.405300 78.709833 -34.850175
782.988277 186.831592 -7.346847
1029.114565 185.116480 -26.917102
1029.027159 188.449629 -8.741109
1029.088616 227.990706 -18.525192
586.763737 162.964714 -23.868042
641.231644 190.819988 -29.968172
868.778805 306.346827 -8.084130
773.183235 72.852096 -6.605798
-0.018432 157.512085 -34.195313
946.761887 217.045919 -8.400878
1028.993735 205.652109 -16.980837
1029.000713 266.680231 -14.841078
1029.019230 264.554280 -17.341043
1029.020443 260.195748 -17.082613
458.506379 75.452678 -5.557500
744.540870 173.455885 -24.016826
-109.470382 389.707021 -30.646948
-32.073965 290.826705 -36.846079
591.832570 184.306267 -5.989349
318.530325 188.808025 -18.211971
495.588823 215.506151 -3.937530
1028.992364 140.724015 -18.226469
898.672203 191.617272 -14.506201
1029.288175 250.532170 -11.240318
1028.982169 140.578835 -8.523235
-0.002378 205.782017 -36.866324
-498.993402 188.808641 -24.940088
1028.991480 184.793799 -26.995024
-148.585930 281.686439 -4.222200
1029.263509 251.378450 -21.648380
-405.749155 126.072098 -35.870439
1029.055936 181.494904 -18.997324
311.029349 157.402209 -11.059853
1029.168282 189.604127 -16.148881
-138.962139 174.463936 -26.088001
1029.060040 188.469406 -26.483053
1029.156936 166.796368 -19.504463
1029.062033 251.332961 -17.754174
760.066089 219.788316 -19.219272
1029.058731 251.612451 -21.507725
1029.209896 251.530546 -18.765869
1029.226357 141.141672 -26.962504
1029.035831 258.818714 -21.723534
1029.137454 191.840832 -7.148699
-27.628305 134.160401 -33.748344
1028.992617 143.275617 -33.765066
213.030080 227.282335 -3.088286
1029.052570 231.238678 -23.593649
628.600034 259.593217 -26.327624
689.214693 327.373013 -6.210415
1029.019086 186.784368 -8.920433
1029.062089 229.606706 -11.842059
-492.847083 185.914786 -3.629031
19.795904 117.698719 -33.893702
760.113394 186.611113 -29.666283
1029.055737 139.105929 -11.640209
-28.255277 135.869026 -31.242168
1029.084872 192.212440 -20.238293
-254.447166 212.269830 -5.032492
-117.864094 217.492565 -12.754314
1028.996143 151.715862 -17.273462
1028.994285 231.174448 -6.028807
411.591621 245.039275 -3.410562
570.313740 208.514676 -4.892456
1029.256785 153.702561 -22.613375
1029.274629 189.295571 -19.419725
789.381470 330.848770 -15.474683
15.159736 155.528637 -33.455301
1029.096721 252.600993 -23.946544
1029.235200 153.879772 -27.568629
-287.345785 212.434142 -36.441580
281.037573 339.077327 -26.774945
1029.273908 151.732683 -17.452964
1029.014351 139.407205 -11.818104
-190.856743 215.700845 -4.386077
1028.984348 184.826144 -32.941579
534.281177 87.644024 -3.771985
1028.980649 249.835231 -21.175183
721.670479 187.556806 -11.217716
1029.188393 230.634547 -28.444128
1029.080799 230.197874 -9.454699
605.227332 214.588702 -30.814322
592.206915 385.382979 -7.400522
340.841321 71.444006 -35.346415
1029.008500 206.564596 -15.792315
513.462489 107.947227 -2.336102
1029.067852 141.603446 -27.818469
1029.069269 165.176413 -18.524279
1029.133526 191.427176 -10.540003
50.995084 224.865018 -3.012853
-126.213543 174.227424 -5.570057
553.030284 5.902902 -25.343228
1029.220334 140.786220 -22.054353
38.749757 232.436310 -37.697639
1029.175277 141.288491 -25.554240
355.173831 77.257787 -32.764371
778.944876 250.108410 -34.698814
572.286042 114.451205 -4.576351
1029.228811 229.056026 -21.423484
1029.263211 229.727649 -8.828450
-13.021109 219.749971 -32.057199
1029.255636 140.847097 -10.347196
1029.144526 262.952322 -22.063480
47.802836 176.544584 -34.184211
1029.093018 189.431262 -22.359625
107.037160 249.948807 -2.523946
999.751817 235.359532 -16.708387
486.065765 108.990738 -25.128838
646.391742 172.008884 -11.119516
1029.146176 187.848913 -9.040993
1029.240783 141.515258 -27.379984
-276.604822 342.690025 -5.917874
1029.025452 191.423095 -15.451683
295.006597 323.786791 -5.864052
-202.642416 219.265407 -26.158848
509.895929 4.497882 -10.106508
1029.083022 262.773429 -19.497108
1029.086616 250.371744 -7.973811
1029.037398 262.781573 -26.167907
1029.137774 227.226450 -10.712844
1029.144133 141.824809 -12.094427
860.218341 310.886940 -7.652315
1029.072346 230.843770 -24.585391
73.053519 175.767180 -31.905848
578.852257 5.830117 -11.693815
482.745798 99.113793 -22.701158
383.704354 264.422647 -20.003473
-173.918060 115.022368 -26.092628
670.524180 125.923469 -6.082090
558.722686 163.512368 -23.386222
-155.192325 220.696313 -5.637611
1029.220458 185.847851 -11.251454
1029.284457 252.216365 -23.460776
1029.129728 164.701498 -20.667179
698.162928 171.281870 -19.564403
387.791064 289.171774 -6.879032
920.009064 126.379501 -6.702205
1029.029557 189.622144 -9.059488
1029.097936 262.061277 -16.866182
1029.292222 139.341657 -20.537809
1029.028994 140.404660 -8.938870
570.490971 10.335581 -6.933655
1029.005844 140.255329 -9.204981
-501.020583 193.330860 -16.225658
422.364659 386.234165 -5.736371
1029.087163 227.049554 -11.271518
654.647424 187.668665 -19.218957
739.824709 353.474183 -18.161472
-51.884745 12.137094 -11.818159
1029.284670 252.620977 -25.589771
-334.701418 212.170954 -37.963424
1029.146218 191.360374 -20.366622
948.084970 176.844804 -8.944358
1028.984297 152.167014 -15.410153
360.710864 244.434940 -33.991234
1028.977495 139.629717 -6.673073
42.160647 326.312000 -34.770792
1029.217982 189.239624 -24.197824
-189.252418 177.298689 -5.555357
695.438178 214.274596 -9.227930
-273.115136 55.468359 -26.332526
1029.331110 152.525238 -20.330589
64.341937 318.973847 -36.095689
1029.187656 251.079710 -22.841616
1029.318670 140.222168 -7.695200
448.671434 76.798341 -4.567429
1029.189180 152.203793 -9.786901
778.742214 184.435423 -10.604185
1029.020630 165.105675 -19.151886
756.921493 174.323831 -6.914907
1029.190473 154.549839 -27.821762
1029.119299 138.490448 -7.169665
-168.135453 374.974263 -12.661739
1028.992859 189.529076 -21.214293
1029.200837 141.506837 -28.207214
1029.122687 189.627835 -12.980992
797.375665 244.662409 -8.166237
311.530220 157.359019 -10.418008
1029.067094 190.358882 -21.601804
1029.149717 228.931587 -26.989552
130.546003 168.709814 -35.648381
480.189594 363.715316 -6.024008
1029.126705 199.221430 -20.196635
955.866639 177.727267 -7.106914
1029.154759 191.002642 -23.581673
1029.118563 166.532241 -28.691753
555.816720 219.021826 -4.500523
1029.114841 139.297521 -11.567960
411.558032 245.110662 -3.276845
1029.136270 191.163161 -23.318089
561.270199 6.567516 -10.598646
1029.105731 205.069380 -15.635904
1028.991614 151.329544 -19.248305
-501.260156 193.564098 -16.718971
310.868018 147.804783 -37.049994
1029.120078 187.702432 -9.310782
1029.163817 184.148452 -21.974278
1029.312471 248.234907 -9.873754
339.256809 72.234613 -35.338149
1029.328978 136.843542 -18.881703
682.379965 324.201948 -24.833780
1029.222021 229.310936 -11.098716
1029.172426 140.413768 -21.018412
521.340297 148.494924 -16.967127
1029.118423 167.132526 -29.081801
1029.032436 162.086172 -8.090933
1029.041121 142.217793 -6.243565
1029.236015 251.014534 -17.909152
221.656687 198.644543 -37.131452
439.348072 240.957600 -0.186942
1028.977966 139.590846 -10.513834
1029.013381 155.959542 -27.775785
472.355398 213.882553 -26.227520
219.629884 198.402037 -36.812782
1029.030631 206.195502 -29.210784
526.573270 160.281651 -6.967377
1029.122752 191.332256 -15.803695
1029.022018 152.098673 -9.721617
1028.979961 185.456998 -7.675500
-9.155809 34.011396 -31.668832
1029.034602 250.235039 -24.035320
758.082449 179.673989 -12.169467
359.102352 70.605096 -35.133763
-215.341772 218.829231 -6.195172
1029.121923 139.486113 -10.572183
806.105389 80.978257 -6.216288
1029.016906 187.725508 -9.274138
527.039604 204.161051 -27.512990
1029.281845 164.317919 -10.568704
17.785213 289.444051 -37.630981
658.900473 329.182766 -6.029304
41.616301 317.045952 -35.908760
452.190565 2.903803 -6.610904
400.884835 273.474580 -5.355285
1029.080642 139.809185 -8.448109
502.276088 108.358594 -2.355600
1029.190996 251.339016 -24.093351
712.035515 214.448746 -8.334404
-141.991995 213.859410 -19.298486
93.653579 282.849965 -37.256133
1029.091622 188.026010 -8.426024
436.715601 67.879477 -0.386201
1029.233175 246.857364 -23.058501
587.177107 385.156340 -26.107694
1029.182799 226.565878 -26.855878
535.594818 154.749244 -24.407076
1029.001557 265.025473 -24.043119
723.093741 165.986033 -22.597303
963.684348 177.672539 -6.932042
1029.147602 265.728428 -24.808093
1028.979811 266.614511 -21.884949
611.196026 389.414926 -23.862088
89.778120 178.199836 -26.321112
378.075462 7.721897 -0.963226
1029.072314 141.391280 -11.738849
563.246950 67.788155 -5.296817
1011.236197 140.345703 -6.083506
624.014539 331.216023 -6.845693
822.175798 215.065954 -17.569601
</DataArray>
</Points>
<PointData>
<DataArray NumberOfComponents='1' type='Int32' Name='ParticleType' format='ascii'>
1
1
1
1
1
1
1
1
1
1
1
1
1
1
1
1
1
1
1
1
1
1
1
1
1
1
1
1
1
1
1
1
1
1
1
1
1
1
1
1
1
1
1
1
1
1
1
1
1
1
1
1
1
1
1
1
1
1
1
1
1
1
1
1
1
1
1
1
1
1
1
1
1
1
1
1
1
1
1
1
1
1
1
1
1
1
1
1
1
1
1
1
1
1
1
1
1
1
1
1
1
1
1
1
1
1
1
1
1
1
1
1
1
1
1
1
1
1
1
1
1
1
1
1
1
1
1
1
1
1
1
1
1
1
1
1
1
1
1
1
1
1
1
1
1
1
1
1
1
1
1
1
1
1
1
1
1
1
1
1
1
1
1
1
1
1
1
1
1
1
1
1
1
1
1
1
1
1
1
1
1
1
1
1
1
1
1
1
1
1
1
1
1
1
1
1
1
1
1
1
1
1
1
1
1
1
1
1
1
1
1
1
1
1
1
1
1
1
1
1
1
1
1
1
1
1
1
1
1
1
1
1
1
1
1
1
1
1
1
1
1
1
1
1
1
1
1
1
1
1
1
1
1
1
1
1
1
1
1
1
1
1
1
1
1
1
1
1
1
1
1
1
1
1
1
1
1
1
1
1
1
1
1
1
1
1
1
1
1
1
1
1
1
1
1
1
1
1
1
1
1
1
1
1
1
1
1
1
1
1
1
1
1
1
1
1
1
1
1
1
1
1
1
1
1
1
1
1
1
1
1
1
1
1
1
1
1
1
1
1
1
1
1
1
1
1
1
1
1
1
1
1
1
1
1
1
1
1
1
1
1
1
1
1
1
1
1
1
1
1
1
1
1
1
1
1
1
1
1
1
1
1
1
1
1
1
1
1
1
1
1
1
1
1
1
1
1
1
1
1
1
1
1
1
1
1
1
1
1
1
1
1
1
1
1
1
1
1
1
1
1
1
1
1
1
1
1
1
1
1
1
1
1
1
1
1
1
1
1
1
1
1
1
1
1
1
1
1
1
1
1
1
1
1
1
1
1
1
1
1
1
1
1
1
1
1
1
1
1
1
1
1
1
1
1
1
1
1
1
1
1
1
1
1
1
1
1
1
1
1
1
1
1
1
1
1
1
1
1
1
</DataArray>
<DataArray NumberOfComponents='1' type='Int32' Name='ParticleID' format='ascii'>
0
1
2
3
4
5
6
7
8
9
10
11
12
13
14
15
16
17
18
19
20
21
22
23
24
25
26
27
28
29
30
31
32
33
34
35
36
37
38
39
40
41
42
43
44
45
46
47
48
49
50
51
52
53
54
55
56
57
58
59
60
61
62
63
64
65
66
67
68
69
70
71
72
73
74
75
76
77
78
79
80
81
82
83
84
85
86
87
88
89
90
91
92
93
94
95
96
97
98
99
100
101
102
103
104
105
106
107
108
109
110
111
112
113
114
115
116
117
118
119
120
121
122
123
124
125
126
127
128
129
130
131
132
133
134
135
136
137
138
139
140
141
142
143
144
145
146
147
148
149
150
151
152
153
154
155
156
157
158
159
160
161
162
163
164
165
166
167
168
169
170
171
172
173
174
175
176
177
178
179
180
181
182
183
184
185
186
187
188
189
190
191
192
193
194
195
196
197
198
199
200
201
202
203
204
205
206
207
208
209
210
211
212
213
214
215
216
217
218
219
220
221
222
223
224
225
226
227
228
229
230
231
232
233
234
235
236
237
238
239
240
241
242
243
244
245
246
247
248
249
250
251
252
253
254
255
256
257
258
259
260
261
262
263
264
265
266
267
268
269
270
271
272
273
274
275
276
277
278
279
280
281
282
283
284
285
286
287
288
289
290
291
292
293
294
295
296
297
298
299
300
301
302
303
304
305
306
307
308
309
310
311
312
313
314
315
316
317
318
319
320
321
322
323
324
325
326
327
328
329
330
331
332
333
334
335
336
337
338
339
340
341
342
343
344
345
346
347
348
349
350
351
352
353
354
355
356
357
358
359
360
361
362
363
364
365
366
367
368
369
370
371
372
373
374
375
376
377
378
379
380
381
382
383
384
385
386
387
388
389
390
391
392
393
394
395
396
397
398
399
400
401
402
403
404
405
406
407
408
409
410
411
412
413
414
415
416
417
418
419
420
421
422
423
424
425
426
427
428
429
430
431
432
433
434
435
436
437
438
439
440
441
442
443
444
445
446
447
448
449
450
451
452
453
454
455
456
457
458
459
460
461
462
463
464
465
466
467
468
469
470
471
472
473
474
475
476
477
478
479
480
481
482
483
484
485
486
487
488
489
490
491
492
493
494
495
496
497
498
499
</DataArray>
<DataArray NumberOfComponents='1' type='Int8' Name='IsActive' format='ascii'>
1
0
1
1
0
1
0
1
1
1
0
1
1
1
1
0
1
0
1
0
1
1
0
1
0
0
1
0
1
1
1
1
0
1
0
1
0
0
1
0
1
1
1
0
1
1
1
1
0
1
0
1
0
1
1
0
1
1
0
1
1
0
1
1
0
1
1
0
0
0
0
1
0
0
1
1
1
0
1
1
1
0
0
0
0
1
0
0
0
0
1
0
0
0
0
1
1
1
0
0
0
1
0
1
1
0
1
0
1
0
0
1
1
0
0
0
1
0
1
1
1
1
0
0
1
1
0
1
0
0
1
1
0
0
0
0
0
1
0
1
0
0
1
0
0
1
1
0
0
0
0
1
0
0
0
1
0
1
1
1
1
1
0
0
1
1
0
1
1
1
1
0
0
1
0
1
1
0
1
0
0
0
0
0
1
0
0
1
1
1
0
0
0
1
1
0
0
1
0
0
0
0
1
0
1
0
1
0
0
1
1
0
0
0
0
0
0
1
0
1
0
1
1
0
0
0
1
1
1
0
0
0
1
0
0
1
0
1
1
0
1
1
0
0
0
1
1
1
1
1
1
0
0
0
0
1
1
1
1
1
1
1
0
1
0
0
1
1
0
1
0
1
0
1
0
1
0
0
0
1
0
0
0
0
0
1
0
1
0
1
1
0
0
1
1
1
0
1
0
1
1
0
0
0
1
0
0
1
1
0
0
1
1
0
0
1
0
1
0
1
0
0
1
1
1
0
1
0
0
0
1
1
1
0
1
0
1
1
1
0
0
1
0
0
1
0
1
1
1
1
0
0
1
0
1
1
1
0
0
0
0
0
1
0
1
1
1
1
1
1
1
1
0
0
0
1
1
1
0
0
0
0
1
0
1
0
0
1
1
1
0
1
0
1
0
1
0
1
0
1
1
1
0
1
0
0
1
0
1
0
1
0
0
1
0
0
0
1
1
0
0
1
1
0
1
0
0
1
0
0
0
1
0
0
1
1
0
0
0
1
0
1
0
0
1
0
0
0
0
1
1
0
0
1
1
0
1
0
0
0
1
0
1
1
1
0
1
0
1
0
1
1
1
1
0
0
1
0
1
1
1
0
1
0
1
0
1
0
1
1
0
0
1
1
0
0
1
1
1
1
</DataArray>
<DataArray NumberOfComponents='1' type='Int32' Name='ParticleTetID' format='ascii'>
66926
-61515
11269
66079
-58962
6876
-66558
72902
66925
17642
-66561
32520
9470
78338
75044
-64917
68905
-68099
6645
-66554
64210
28405
-58961
81758
-64916
-70586
60307
-61512
24622
74325
67414
49052
-68099
66009
-112396
65397
-66561
-66555
54824
-66557
71155
77132
41379
-66560
62918
9502
30867
63041
-64920
61221
-64914
71965
-61515
27682
19262
-61512
32130
9373
-64917
65831
33081
-64914
61455
65326
-72213
30742
68956
-64917
-66552
-66551
-66552
7359
-112396
-64916
54234
75002
63050
-58965
65903
61224
72865
-72207
-64920
-66554
-58961
56846
-68099
-61515
-66557
-66558
39201
-64917
-72207
-66561
-61515
34922
35083
73874
-64919
-66548
-66561
1750
-58962
3810
9243
-58955
63081
-59786
6433
-66554
-66554
2273
28532
-61518
-70584
-58965
85776
-64914
9847
61517
27917
71407
-64917
-66554
63023
40066
-146594
67413
-58962
-66560
5833
9415
-64914
-66588
-61518
-59791
-61512
72512
-112396
9415
-72210
-58965
60083
-61512
-58955
67016
61389
-58955
-59791
-156163
-66588
65755
-61515
-58955
-68105
26196
-66551
10219
28802
28099
63023
88438
-64916
-58958
73046
59802
-64914
45154
69394
61961
10808
-66560
-58958
68978
-61511
65344
10690
-61514
63203
-58958
-72213
-64919
-61512
-68099
98736
-68105
-64919
58809
7297
7184
-58962
-61518
-59783
62924
31304
-66558
-59786
61367
-59783
-66560
-58958
-58965
31227
-66557
65685
-59786
39907
-64914
-66551
7254
62972
-72207
-64916
-68102
-66561
-59788
-61511
62924
-61512
1995
-58955
51580
10491
-61518
-58955
-66551
63209
34073
61389
-61512
-66561
-136563
124680
-59785
-66551
39063
-61518
67421
72961
-68099
26153
65327
-61521
-61512
-58958
68519
72698
57875
71155
12364
67323
-72207
-68103
-68102
-64917
55135
70390
10814
4949
70651
45080
51679
-66554
71216
-64913
-66551
5902
19217
-61521
1874
-64920
2213
-61514
45167
-61515
6959
-61517
-59786
-64916
62972
-64920
-64916
-66561
-64920
-61512
2735
-66564
91697
-58961
71974
63721
-61512
-58955
19262
48363
63212
-66551
121
-61518
7544
3892
-66555
-58952
-126563
80065
-66558
-61514
75608
36665
-64919
-66561
9538
29658
-66555
-66551
9505
-61520
56844
-64920
63184
-58965
-58955
67424
67089
43181
-72207
58986
-66560
-59786
-61512
30258
13034
61967
-66557
30274
-66557
43087
69335
78014
-58962
-58955
6241
-66551
-68105
40893
-61518
37010
77750
52930
66227
-61512
-66561
7994
-61515
29629
9460
69395
-68102
-64914
-68105
-58955
-66551
60159
-58961
100882
61313
53883
82198
6868
62084
59105
13520
-61511
-64920
-59788
59065
82961
72597
-61512
-68102
-66557
-66551
61383
-66551
2276
-112399
-58955
63152
63278
5531
-64919
11122
-61518
62787
-66555
46419
-66552
33047
-61518
9289
62897
7660
-66558
38645
-64920
-66551
51536
-66552
63077
-59786
77079
-66561
-66588
13630
-61518
-66560
-61511
60899
45167
-61518
-58965
48039
55351
-72210
59241
-61518
-59791
68995
-66551
-126559
-61518
61744
-72207
-66554
2276
49750
-61512
-61518
-64913
43181
-66591
64235
-58955
-66557
74402
-59791
-59782
-66548
-64916
41669
136868
-66551
-66561
55594
41669
-72213
75891
-61515
-66552
-61512
20388
-64919
63203
48454
7400
-66551
73351
-61512
64902
-59783
25217
56593
27557
53245
-127033
-66551
68942
-64919
63023
17035
37384
-61512
87577
-64919
68069
-58965
75197
-68105
59337
59241
-68105
-68106
56945
98736
-153844
-66551
78374
75223
66513
62954
</DataArray>
<DataArray NumberOfComponents='3' type='Float32' Name='vels' format='ascii'>
0.241002 -0.043375 -0.000366
2.941750 0.743093 0.251364
0.100674 0.029976 -0.000186
0.344195 0.013705 -0.000241
4.011166 -0.808442 0.007605
0.311055 -0.048326 0.000215
5.291425 0.658114 0.015048
0.310448 -0.025949 0.000156
0.429898 -0.034172 0.001540
0.291850 0.008425 -0.000174
4.043204 0.516567 -0.062035
0.084839 0.539857 0.010211
0.257410 0.005813 -0.000837
0.240091 0.125355 0.000620
0.070481 0.025988 -0.000758
4.781214 -0.633258 0.223552
0.853478 0.013645 0.001671
1.841632 -0.359408 0.096556
0.083185 0.013922 -0.000104
4.618366 0.202199 0.374453
2.266131 0.300052 -0.002130
-0.123702 -1.211982 -0.010386
3.564954 -0.948543 -0.100939
0.005619 0.000340 0.001141
5.081494 -0.728568 0.061442
2.709453 -0.571234 0.037044
2.905789 0.152251 -0.000642
2.291721 0.555347 0.251364
0.641842 -0.187868 -0.000466
1.476117 -0.337924 -0.000162
0.238418 0.000515 -0.000399
1.183597 -3.520018 0.004453
3.213363 -0.761119 -0.003224
1.540700 -0.052365 0.011438
30.832558 8.406263 0.242404
0.760284 0.007520 0.000100
3.361597 0.485264 0.057820
5.072144 0.616756 0.203979
0.002272 0.002908 0.000897
4.822554 0.159554 -0.071552
0.933890 0.243332 -0.000112
0.267165 0.282390 0.001866
0.787144 -0.080520 0.005643
3.522981 0.454183 -0.022000
0.240249 -0.000674 -0.000842
0.013723 -0.000787 -0.000005
0.682146 0.841085 -0.000621
0.931171 -0.008623 -0.000006
5.038774 -0.652624 0.013047
0.070527 -0.000197 0.000602
2.926561 -0.297746 0.581025
1.249624 -0.078465 0.000191
2.831417 0.656188 0.157502
0.989000 -1.540826 0.004175
-0.001747 0.000571 -0.000326
2.459462 0.587685 0.168515
0.708057 -0.168969 -0.001378
1.487334 -0.025564 0.002864
4.325011 -0.485807 0.474073
0.034457 0.000193 -0.001529
0.547635 0.214042 -0.000143
3.009809 -0.323029 0.523657
0.875854 0.009809 -0.001900
1.808418 0.036400 -0.001436
1.625300 0.032475 -0.102624
0.017857 -0.002054 0.000000
0.001297 0.002145 0.000001
4.340364 -0.231916 0.365021
3.114425 0.129711 0.500337
4.121013 0.480241 0.104173
3.314428 0.340714 0.441299
0.798329 -0.007770 -0.001538
46.675339 14.517866 -0.076229
4.966831 -0.741021 0.103249
0.841328 -0.440268 -0.039374
0.000874 0.002850 -0.002837
0.009585 -0.000026 -0.000488
4.058145 -0.762731 -0.344492
0.001880 -0.000009 0.000081
0.006275 -0.000008 0.000036
0.901695 0.074129 -0.000177
2.447300 0.404613 0.136695
4.955756 -0.666599 0.026369
5.270291 0.597518 0.093265
3.790543 -0.755850 0.004429
0.704278 0.319129 -0.000229
3.198346 -0.576469 0.091015
2.891380 0.658313 0.072510
4.708169 0.714293 0.041555
5.286538 0.662013 0.016323
4.830480 -0.154722 -0.002377
4.335292 -0.493674 0.469468
2.376679 0.415278 0.303110
3.978817 0.514039 -0.035953
2.925429 0.736889 0.253986
0.445773 0.099217 0.001344
3.567229 -2.196123 0.001896
0.130066 -0.012043 -0.000242
4.657912 -0.665986 -0.017331
0.402313 0.016930 0.069481
4.122142 0.520750 -0.092827
0.568454 -0.017282 0.004394
4.068510 -0.838672 0.002245
-0.002616 -0.000007 0.001861
1.811033 0.264753 0.000641
3.529941 -0.711878 0.030954
3.153979 0.242770 0.000385
5.068028 0.739679 0.098900
0.118158 0.019155 -0.000241
5.282705 0.607003 0.090999
4.672356 0.220515 0.340548
0.001089 0.001328 0.000986
0.484889 0.722411 0.001005
2.719856 0.689432 0.014472
1.875758 -0.371275 0.170103
3.526443 -0.813141 -0.314200
-0.000245 0.000141 -0.008906
2.977139 -0.317598 0.549789
0.505032 0.143364 0.000096
2.693897 0.619984 -0.023687
0.251670 0.310924 0.000907
1.673999 0.088208 0.000300
5.097804 -0.739710 -0.004191
5.187976 0.534039 0.131804
0.191917 -0.000240 0.000252
-0.006010 -0.002635 -0.000053
0.063052 -0.112684 0.126129
0.134085 0.000447 -0.000637
3.941319 -0.939718 0.019078
3.094111 0.466580 0.051646
0.803101 0.707888 -0.000319
0.507125 0.005108 0.002550
2.947628 -0.317004 0.559127
3.315421 0.229466 0.303735
3.114699 0.812712 -0.006021
3.981705 0.784788 -0.179278
2.397503 0.576482 0.045044
0.414168 0.002461 -0.000234
46.605008 17.425592 -0.121316
0.880472 0.015165 0.001402
2.453705 0.036037 -0.002453
3.273935 -0.703619 -0.146819
0.216257 0.159156 0.000005
2.267504 0.537684 0.170558
3.031390 -0.650702 0.168210
0.771765 -0.159206 0.001245
0.037423 -0.000006 -0.000729
3.485382 -0.705401 0.047642
4.244217 0.718171 -0.088138
0.078912 -0.035162 -0.038296
3.309975 0.272851 0.268077
1.285640 -0.248099 0.001563
3.143853 0.750221 0.009430
3.065246 -0.673178 0.198509
4.241233 -0.744797 0.007929
0.805512 1.504885 -0.003745
3.991307 0.425104 0.155119
1.023940 -0.007688 -0.000015
0.641430 -0.466236 0.005269
1.434176 0.294742 -0.002202
0.080564 -0.000070 0.000048
4.038095 -2.442741 -0.287697
4.864729 -0.743999 0.144699
4.023324 -0.834694 0.046985
0.459337 0.183998 -0.000169
0.373068 0.000169 -0.002859
2.983754 -0.330680 0.536378
-0.003647 -0.021120 -0.001509
0.053749 0.000097 -0.001002
0.217349 0.000262 -0.000284
0.012450 -0.000028 0.000200
2.912069 0.446903 0.058844
4.195891 -0.823559 0.007726
0.647028 -0.006994 0.000067
3.421469 0.801853 0.232091
0.681711 0.004063 -0.000979
-0.000127 0.000014 0.000122
3.917611 0.961390 0.066384
0.004903 0.000003 0.000522
3.998002 -0.839101 0.052347
2.110943 0.365026 -0.216448
4.558290 -0.718325 -0.153658
2.517882 0.602668 0.087560
2.602964 -0.618944 0.038887
0.006360 -0.002762 0.000439
3.746715 -0.624846 0.010220
4.537418 -0.639668 -0.001990
1.843254 -0.265702 -0.000350
0.020573 -0.000030 -0.000252
0.035956 0.005741 -0.000732
4.022468 -0.876011 0.007542
3.114020 0.835475 0.004567
4.032579 0.575637 0.282121
0.783017 -0.003910 -0.001451
0.411206 0.715485 -0.003480
5.273003 0.663612 0.018242
5.040750 0.742126 0.111195
0.206985 0.001264 0.000218
4.238118 0.605920 0.212747
3.032198 0.458377 0.052126
3.570209 -0.858505 0.231158