<VTKFile type='UnstructuredGrid' version='1.0' byte_order='LittleEndian' header_type='UInt64'>
<UnstructuredGrid>
<Piece NumberOfCells='500' NumberOfPoints='500'>
<Points>
<DataArray NumberOfComponents='3' type='Float32' Name='Position' format='ascii'>
-27.244361 233.044901 -4.865622
616.376134 164.203977 -17.195942
-372.671551 313.357016 -6.147929
-145.801457 279.850998 -10.296273
765.520125 249.437583 -20.212119
-307.539996 136.804081 -2.107322
752.341120 90.275512 -22.051677
70.525247 256.468353 -7.645548
-38.351213 231.749985 -5.153380
-244.403286 263.353464 -4.955445
506.330849 56.906588 -29.409929
-181.173866 28.046393 -29.765213
-275.815484 221.184051 -6.087527
-100.447635 132.448171 -3.950648
360.947230 256.052204 -6.289257
380.219010 296.475722 -13.035531
508.652476 136.939666 -6.725302
369.673588 370.511898 -13.926004
-343.578694 284.486136 -6.478073
740.819277 65.595797 -20.089735
648.170899 127.596335 -13.202618
-70.403925 45.209318 -4.405508
753.613543 247.026419 -26.151038
120.076784 268.225581 -15.260734
550.976869 325.077663 -17.371663
687.692007 226.836294 -16.531714
-181.150645 214.186573 -23.604695
603.951648 161.635716 -9.113256
-129.466072 340.135885 -37.544049
122.802507 229.221752 -5.922914
567.881968 203.893304 -13.296969
-132.858911 149.489054 -2.586653
255.687691 317.263200 -11.277160
556.277515 210.290207 -9.853555
-141.703762 370.881873 -19.704478
471.208229 221.800886 -8.185506
676.837561 79.223774 -27.468130
794.903541 98.235520 -16.583111
314.054573 181.696529 -31.913361
553.564288 42.573300 -26.519928
141.151072 167.438819 -7.026654
-51.550330 155.219498 -4.014918
-74.363151 145.311695 -37.012219
23.227744 115.829206 -32.374235
567.946076 204.789050 -17.824189
-355.103085 216.860445 -37.728536
-95.869571 47.615394 -35.260340
571.389487 213.451267 -9.211150
371.949490 347.047423 -23.145026
529.603773 195.799877 -8.994569
534.330251 322.629846 -10.806229
-57.571465 252.760990 -6.561614
617.847936 168.829708 -17.347624
-97.956963 344.577987 -37.321828
-491.632755 186.512093 -1.770437
488.377746 97.989571 -8.122954
-56.063713 332.968875 -5.625391
-486.475398 182.876974 -32.292481
529.096942 322.488140 -17.051747
290.060598 40.119509 -15.256188
-107.830342 133.514977 -34.060669
538.096139 325.009799 -10.370046
103.429774 286.738455 -10.118733
498.081453 195.385898 -11.077182
519.136869 210.196021 -28.488887
-142.124459 263.802202 -37.397404
341.052823 77.893665 -32.470083
531.155897 354.263541 -19.503034
486.890820 31.624218 -7.838489
677.642722 52.277522 -10.380970
316.789262 56.772240 -14.425686
-361.165873 183.788112 -34.946417
220.012526 251.820787 -21.218476
578.925184 337.390496 -18.099655
-89.291562 243.957622 -3.055452
-22.189284 224.699009 -32.592923
524.075367 199.451937 -28.021725
635.643020 255.684886 -26.461909
565.687244 200.009831 -10.807781
511.396755 192.372697 -13.498727
-178.121143 121.355862 -6.731724
559.789808 186.543629 -13.788918
466.777661 275.535014 -18.387483
757.682691 70.428980 -17.192473
763.407032 246.220262 -22.909204
-102.502620 132.716941 -3.637670
235.685601 291.902542 -12.564256
589.226943 168.399790 -16.164685
697.556005 56.625361 -20.976989
792.952932 98.122926 -21.951347
-95.682181 236.423120 -35.309908
537.764242 325.764873 -16.966097
512.555473 182.097625 -14.510492
533.242690 66.803763 -29.188576
596.088842 163.763323 -17.234255
-153.880915 236.079852 -2.633325
-195.486932 223.710168 -2.456391
130.088848 207.102502 -10.102145
350.734312 300.267578 -30.832147
499.610866 31.810319 -6.889795
549.745422 69.282195 -29.658599
-254.413177 349.286957 -12.083747
-65.136939 312.800380 -23.460813
-432.658286 176.975929 -26.650553
-392.223437 245.465322 -19.953240
620.390237 259.395151 -10.647684
-195.159424 177.269778 -24.213482
800.189816 148.743964 -17.797434
-389.461040 245.144774 -19.900403
554.189129 37.963107 -17.177473
760.993446 71.848959 -20.008198
-502.363800 192.224316 -10.128786
-79.364007 361.407680 -3.389154
476.884577 93.329970 -20.132933
445.592205 241.050255 -2.720835
508.783139 255.039731 -28.745589
316.262138 182.871311 -26.407446
467.812096 278.502020 -8.312932
-364.506495 318.087183 -5.439172
-79.554243 213.398741 -27.442575
-167.380830 34.549048 -35.922923
299.384808 165.265765 -6.776466
371.705945 348.002616 -14.912163
659.977666 47.974791 -17.734868
543.137920 199.515287 -9.999218
-86.320146 357.944623 -33.912903
4.349165 163.927415 -17.807038
532.797821 196.713746 -9.311599
560.970711 258.504775 -21.999749
332.414852 38.354287 -32.230622
-242.947121 89.393532 -4.785894
-349.092060 212.720857 -4.880116
546.865568 326.947533 -10.445379
642.913462 40.738226 -12.198932
495.318480 110.887855 -23.857108
576.034893 124.430007 -27.669034
441.224265 69.602679 -5.036216
617.975398 221.113897 -17.497252
213.546289 229.130735 -21.851606
-367.681720 210.494738 -3.344779
506.089085 188.135869 -20.183676
540.394826 258.831055 -27.340010
378.797506 53.791380 -9.559027
631.650522 164.800207 -9.235441
730.979775 247.579982 -11.776046
214.931912 240.343854 -9.162113
195.452081 157.082472 -23.611611
602.434507 259.722832 -10.683356
542.784578 116.189228 -29.232445
377.376208 56.007266 -9.624991
562.316267 32.358659 -11.381268
352.409348 300.133793 -8.155473
705.580456 169.439626 -14.021530
652.928096 257.467076 -12.355546
286.956759 350.713221 -25.314742
-365.640270 312.595635 -13.187952
232.231103 154.450092 -13.441400
-318.354278 181.185710 -32.418825
-156.683407 225.423936 -2.938129
-210.042516 223.245565 -5.562062
563.381647 213.077392 -12.485549
-345.021849 318.492558 -13.189487
571.754806 332.737134 -18.549144
-137.667313 315.216381 -21.850293
-50.297355 74.748058 -6.658853
559.353402 203.516137 -14.098240
497.232197 299.694129 -10.155944
315.600621 181.951688 -25.352087
287.698910 48.425373 -15.269505
43.909741 138.074636 -13.863204
-319.028573 331.798358 -19.145587
343.530246 33.331374 -27.898944
828.090015 241.368949 -16.031780
100.723930 219.114534 -6.754535
521.801844 151.414935 -13.116197
512.883050 183.902701 -12.410682
-521.825577 274.637766 -37.163636
455.558898 79.196508 -18.551997
543.487487 193.805371 -10.236899
847.760569 239.661548 -17.324573
509.899066 188.313344 -27.125666
321.869360 309.732991 -32.077150
475.773576 86.255347 -7.957951
312.795553 344.704529 -13.192569
4.189304 75.104940 -26.965617
476.524569 381.616463 -20.527445
488.913680 292.441926 -23.033921
-35.108480 376.870597 -17.751468
-317.738705 176.434248 -19.893010
-325.941858 283.142395 -3.213577
-133.280004 322.030100 -24.641671
521.235551 145.933013 -24.156251
654.147796 126.781854 -12.334638
556.693303 199.263245 -26.588186
-115.391842 352.512388 -2.792331
732.972388 84.232301 -21.411277
804.415841 149.968845 -18.152157
327.127140 18.704399 -16.210120
639.451374 129.907165 -11.634506
332.576591 38.519263 -32.692751
812.359259 239.438602 -19.764642
582.927565 260.496234 -26.387092
-63.760347 352.936520 -34.855235
594.080620 67.726449 -26.476590
180.103308 162.461121 -9.898468
799.855185 147.434587 -17.734817
-135.366457 63.647241 -4.851378
283.600468 278.454864 -12.794496
720.639451 59.956250 -12.634171
-369.409100 183.604773 -2.090785
570.895776 209.204306 -16.034475
680.442388 225.616626 -15.278544
568.001892 328.269406 -18.675491
531.517484 357.669126 -18.631044
318.269311 47.576300 -32.023106
718.105152 136.405039 -20.802108
534.127475 155.714384 -12.203643
528.331936 196.737284 -26.374235
510.502794 154.456610 -11.097597
-157.766847 26.729049 -34.342852
699.235951 250.178447 -12.334963
-251.765246 180.989778 -29.624838
-218.750633 79.363713 -34.268627
546.925950 166.044613 -20.859333
755.713378 245.678528 -11.875009
243.284430 158.718065 -18.711588
487.347622 201.205680 -25.856021
-101.183210 223.908595 -35.996451
213.774666 152.715942 -23.842230
304.064178 167.313101 -8.429496
535.667671 66.607110 -27.939330
-84.364752 261.476510 -3.330419
-68.374952 230.744122 -36.052227
650.151049 124.692792 -15.055636
40.574327 146.081328 -13.443311
-34.851346 371.782106 -7.057126
548.508759 168.480383 -20.477114
-224.363097 226.512461 -33.152186
293.311280 209.348689 -18.778848
245.182385 287.598253 -8.400629
-96.024274 48.836428 -34.679524
447.198408 232.428015 -3.123812
496.624013 104.393554 -26.436840
525.810061 150.258853 -9.018717
820.047001 240.349321 -18.946753
-216.215384 214.267528 -29.282598
487.039852 212.330304 -27.771681
216.628767 246.881794 -11.989059
75.589927 187.585291 -6.517515
-145.349381 115.466880 -34.563849
530.698347 201.073059 -8.686914
654.897488 220.952248 -16.542984
307.620903 358.539514 -17.236841
275.561587 338.701326 -21.286789
526.153524 351.890557 -17.093917
-152.561126 169.915215 -4.937802
302.587578 199.344472 -23.910780
-312.639883 335.898437 -31.297547
-298.363783 293.984811 -36.988666
310.643928 220.954229 -6.717082
318.354827 188.290800 -17.601008
-75.055757 242.076939 -3.424933
795.103272 80.124455 -18.503290
582.136414 188.197935 -14.451473
575.741834 337.964511 -12.060844
677.986739 52.010304 -8.567056
-137.161341 166.193414 -36.868906
-498.731102 188.615222 -24.491589
569.174403 156.363423 -26.523181
-264.715475 264.143093 -4.082372
519.921259 316.196213 -21.601144
-405.734246 126.147058 -35.863715
780.628969 165.219347 -19.399534
-184.259252 173.573430 -12.700323
659.426200 167.852260 -16.332486
-312.922065 176.071380 -26.469322
504.088081 125.912235 -25.933523
656.699561 129.213287 -19.757733
562.652674 334.910264 -18.009994
602.688607 220.702899 -19.019450
516.517273 315.464080 -21.492700
565.323508 336.743286 -19.056831
334.925956 36.271657 -32.005114
374.642615 355.552358 -23.230008
485.491352 102.804813 -7.479970
-201.239854 121.133194 -34.299500
531.284614 43.090757 -33.280644
-107.070117 373.792773 -4.368128
552.399833 261.226068 -23.569390
-205.316034 266.701735 -31.988050
336.515172 302.161325 -7.783422
620.422593 162.297249 -9.374949
822.851693 240.147518 -13.341724
-502.663563 192.054501 -3.636321
-187.802630 45.411374 -33.901292
484.900771 210.715073 -29.138245
711.626196 57.620593 -12.057157
-229.915945 127.890992 -31.947644
476.842002 99.225943 -20.431351
-390.997176 210.672364 -4.480706
-264.121829 216.413015 -12.652410
518.481697 54.324772 -17.662564
282.996849 252.584414 -8.222618
411.591621 245.039275 -3.410562
333.552516 231.326643 -6.644329
605.418092 66.203076 -22.812316
599.421474 167.937012 -19.644687
-55.048122 367.532288 -20.011973
-189.905690 76.341962 -33.514330
357.181885 317.334598 -28.003739
609.992205 67.469198 -27.809382
-406.157730 211.512224 -36.918740
-366.248968 307.744054 -26.665986
756.301233 87.057575 -17.957110
698.587774 55.191070 -12.254781
-333.783655 213.585528 -4.089130
365.023481 57.577132 -19.562640
-84.230210 150.070567 -3.831512
583.149565 334.666881 -21.086185
556.237339 195.651988 -12.116549
519.499220 255.878890 -28.374423
615.425221 259.784746 -10.502714
462.303860 229.387992 -26.930521
117.721571 262.595030 -9.536626
-123.266757 172.884613 -35.532200
682.875605 224.399869 -15.756377
-79.924244 165.535906 -3.487435
172.799711 165.282832 -32.645506
717.426793 135.376252 -18.378637
501.382885 137.720366 -11.114943
-217.959511 219.314294 -2.955427
-256.821538 175.991242 -5.372169
53.303087 157.366470 -31.127579
646.684119 45.747190 -22.346141
-114.041391 235.299244 -37.696714
594.652426 40.752110 -25.685295
32.617021 226.444526 -31.358407
474.656381 255.690995 -34.392774
-58.146197 148.050862 -5.983765
808.147235 242.947283 -21.572805
591.358281 259.653369 -10.048601
-273.272589 218.725403 -32.482997
559.834825 38.841602 -10.385870
122.939705 243.380973 -27.321366
-145.241764 58.867703 -34.163408
503.482933 125.755902 -22.369525
-156.532753 350.236867 -2.590884
-168.273004 270.560019 -19.497879
312.311037 141.640969 -30.127878
380.914478 68.836983 -2.257113
596.593795 162.414206 -9.408862
340.633535 32.301536 -31.259844
-422.253791 300.881174 -6.712023
257.414475 199.538755 -17.532001
-22.682997 324.394186 -6.047369
-367.430093 217.472923 -26.622031
6.644871 78.272369 -8.696187
520.553009 365.819380 -19.749697
347.677763 296.195016 -8.124350
271.660535 317.461803 -31.840510
715.569415 247.251083 -11.143321
720.120561 64.529647 -13.110483
230.304684 270.750407 -8.386900
755.486268 248.995791 -24.489120
-273.263013 57.933306 -31.859280
71.272701 172.218458 -12.503191
-231.671865 211.040283 -27.870876
-77.045044 274.330204 -35.863907
-285.718771 132.914109 -26.302651
518.358076 75.358639 -6.105189
-204.211150 213.883792 -29.192189
-275.515687 218.939159 -5.635050
613.313492 162.149030 -11.914183
318.883722 309.216530 -32.763204
746.866598 141.458379 -20.578518
-183.347737 212.472327 -22.389612
358.419264 319.812288 -11.182575
57.200308 182.765684 -6.738296
508.119926 135.518806 -9.400377
515.365362 359.839994 -16.849353
753.943371 68.377356 -20.753492
552.262978 38.316334 -8.896489
33.437132 133.488571 -7.879760
564.711925 38.426804 -9.038300
-501.910222 193.451093 -17.400548
299.996530 358.798703 -25.251340
619.001845 255.527719 -12.207345
580.015881 188.123701 -19.470143
266.502430 348.536515 -24.285485
-239.170160 43.636874 -11.455422
335.527705 317.285732 -29.890025
-449.219715 212.433432 -37.813569
601.018441 167.931624 -20.568449
-34.965701 203.666157 -10.767899
687.148116 74.479284 -15.562910
-68.500663 240.845761 -34.285662
329.710255 35.674344 -7.350655
-131.509006 382.918218 -34.862884
495.301182 116.492626 -24.133450
-332.463357 179.210688 -5.303513
564.613575 203.799946 -10.506214
-384.790858 87.371680 -26.487665
-160.520368 78.177746 -23.821421
-116.961783 380.052986 -36.019997
500.460635 304.888594 -22.905556
329.545817 27.121585 -8.587011
314.998850 182.659991 -6.561951
698.329911 76.216127 -10.128986
500.756983 193.288462 -10.977514
670.636493 129.015329 -18.953515
22.826955 217.902456 -7.870851
538.522288 67.519229 -28.024781
122.903968 167.031109 -12.279032
-366.689714 318.252545 -12.578663
667.034280 167.975017 -21.323599
14.661611 113.628065 -33.095926
558.171852 164.290349 -13.706696
-153.310147 320.227417 -11.618986
-218.129116 214.383906 -11.251332
660.727265 167.977623 -21.641097
330.225821 268.465150 -30.581516
-86.737081 45.541915 -35.839256
257.378410 277.760099 -7.027253
570.374240 184.390787 -20.391774
337.356969 77.731740 -9.041843
434.993812 68.819683 -11.682065
643.847483 131.808209 -28.516226
-20.719202 241.452682 -5.923582
634.478799 40.995104 -11.963081
393.612983 253.148308 -4.567055
261.241628 202.933620 -27.873967
53.110487 153.504323 -10.497405
652.476957 221.606140 -14.986330
-143.120392 114.170049 -23.490246
-501.955958 193.973690 -17.951052
-126.886200 225.027335 -36.211980
527.600278 151.075721 -9.838974
604.944250 158.251146 -22.043582
586.059190 333.073233 -10.461031
-127.827117 165.842927 -35.422628
742.133376 62.902342 -19.628183
-194.259573 314.813144 -31.657644
755.071883 246.661010 -11.764359
755.878332 70.689602 -21.290666
-250.674864 183.198496 -22.125740
561.280974 117.434885 -28.854675
553.806882 96.443714 -7.668354
477.826064 30.608064 -6.561781
573.844916 337.788295 -18.110903
-70.972155 241.315586 -37.014511
-80.099978 258.452551 -3.075591
559.079594 37.169144 -10.479829
546.388684 72.836944 -28.078463
-26.658383 209.715595 -26.346744
-96.442487 244.569386 -36.849183
512.519572 208.689604 -28.580192
-67.209725 163.644296 -6.285900
563.043248 168.677395 -15.909107
685.647023 73.531043 -10.099998
258.975315 200.327873 -7.604234
-275.976943 58.046153 -31.922071
341.416926 305.049317 -31.492778
480.073907 202.465759 -12.000330
-82.098287 224.804932 -35.447211
-311.269934 217.678721 -5.935139
363.855424 13.292453 -5.865657
192.287197 165.702015 -7.449310
609.846140 162.951206 -9.828799
-72.537271 254.196397 -35.020746
599.283001 122.652759 -10.596235
-122.802109 340.987393 -37.652508
270.405731 271.195092 -6.949237
-134.762016 372.829351 -35.886767
-6.509875 46.416104 -8.560156
400.884835 273.474580 -5.355285
506.065314 31.652470 -8.297780
-77.007351 163.883093 -3.715991
311.869056 309.038282 -32.583558
532.489339 199.066751 -9.577827
-295.169164 213.226600 -19.334996
-138.007595 367.062931 -37.312060
527.194518 150.789760 -8.813816
-129.000897 164.601705 -3.227098
538.885375 306.167401 -22.835011
227.862744 267.446984 -30.328628
749.807786 244.717050 -26.548349
-220.079424 213.847863 -29.444476
233.953822 278.541901 -30.166707
-179.132861 179.588700 -29.235465
460.120212 80.527800 -6.563534
356.440684 372.793981 -25.528276
359.395588 364.416883 -21.852568
123.221694 240.600074 -26.996162
20.148251 92.833897 -29.761747
-14.037094 54.403636 -13.010930
628.026344 44.347826 -12.305686
-172.326988 116.702280 -9.674383
492.535183 33.630659 -6.050971
-153.901153 317.387750 -10.219056
591.696922 216.799037 -17.352981
</DataArray>
</Points>
<PointData>
<DataArray NumberOfComponents='1' type='Int32' Name='ParticleType' format='ascii'>
1
1
1
1
1
1
1
1
1
1
1
1
1
1
1
1
1
1
1
1
1
1
1
1
1
1
1
1
1
1
1
1
1
1
1
1
1
1
1
1
1
1
1
1
1
1
1
1
1
1
1
1
1
1
1
1
1
1
1
1
1
1
1
1
1
1
1
1
1
1
1
1
1
1
1
1
1
1
1
1
1
1
1
1
1
1
1
1
1
1
1
1
1
1
1
1
1
1
1
1
1
1
1
1
1
1
1
1
1
1
1
1
1
1
1
1
1
1
1
1
1
1
1
1
1
1
1
1
1
1
1
1
1
1
1
1
1
1
1
1
1
1
1
1
1
1
1
1
1
1
1
1
1
1
1
1
1
1
1
1
1
1
1
1
1
1
1
1
1
1
1
1
1
1
1
1
1
1
1
1
1
1
1
1
1
1
1
1
1
1
1
1
1
1
1
1
1
1
1
1
1
1
1
1
1
1
1
1
1
1
1
1
1
1
1
1
1
1
1
1
1
1
1
1
1
1
1
1
1
1
1
1
1
1
1
1
1
1
1
1
1
1
1
1
1
1
1
1
1
1
1
1
1
1
1
1
1
1
1
1
1
1
1
1
1
1
1
1
1
1
1
1
1
1
1
1
1
1
1
1
1
1
1
1
1
1
1
1
1
1
1
1
1
1
1
1
1
1
1
1
1
1
1
1
1
1
1
1
1
1
1
1
1
1
1
1
1
1
1
1
1
1
1
1
1
1
1
1
1
1
1
1
1
1
1
1
1
1
1
1
1
1
1
1
1
1
1
1
1
1
1
1
1
1
1
1
1
1
1
1
1
1
1
1
1
1
1
1
1
1
1
1
1
1
1
1
1
1
1
1
1
1
1
1
1
1
1
1
1
1
1
1
1
1
1
1
1
1
1
1
1
1
1
1
1
1
1
1
1
1
1
1
1
1
1
1
1
1
1
1
1
1
1
1
1
1
1
1
1
1
1
1
1
1
1
1
1
1
1
1
1
1
1
1
1
1
1
1
1
1
1
1
1
1
1
1
1
1
1
1
1
1
1
1
1
1
1
1
1
1
1
1
1
1
1
1
1
1
1
1
1
1
1
1
1
1
1
1
1
1
1
1
1
1
1
1
1
1
1
1
</DataArray>
<DataArray NumberOfComponents='1' type='Int32' Name='ParticleID' format='ascii'>
0
1
2
3
4
5
6
7
8
9
10
11
12
13
14
15
16
17
18
19
20
21
22
23
24
25
26
27
28
29
30
31
32
33
34
35
36
37
38
39
40
41
42
43
44
45
46
47
48
49
50
51
52
53
54
55
56
57
58
59
60
61
62
63
64
65
66
67
68
69
70
71
72
73
74
75
76
77
78
79
80
81
82
83
84
85
86
87
88
89
90
91
92
93
94
95
96
97
98
99
100
101
102
103
104
105
106
107
108
109
110
111
112
113
114
115
116
117
118
119
120
121
122
123
124
125
126
127
128
129
130
131
132
133
134
135
136
137
138
139
140
141
142
143
144
145
146
147
148
149
150
151
152
153
154
155
156
157
158
159
160
161
162
163
164
165
166
167
168
169
170
171
172
173
174
175
176
177
178
179
180
181
182
183
184
185
186
187
188
189
190
191
192
193
194
195
196
197
198
199
200
201
202
203
204
205
206
207
208
209
210
211
212
213
214
215
216
217
218
219
220
221
222
223
224
225
226
227
228
229
230
231
232
233
234
235
236
237
238
239
240
241
242
243
244
245
246
247
248
249
250
251
252
253
254
255
256
257
258
259
260
261
262
263
264
265
266
267
268
269
270
271
272
273
274
275
276
277
278
279
280
281
282
283
284
285
286
287
288
289
290
291
292
293
294
295
296
297
298
299
300
301
302
303
304
305
306
307
308
309
310
311
312
313
314
315
316
317
318
319
320
321
322
323
324
325
326
327
328
329
330
331
332
333
334
335
336
337
338
339
340
341
342
343
344
345
346
347
348
349
350
351
352
353
354
355
356
357
358
359
360
361
362
363
364
365
366
367
368
369
370
371
372
373
374
375
376
377
378
379
380
381
382
383
384
385
386
387
388
389
390
391
392
393
394
395
396
397
398
399
400
401
402
403
404
405
406
407
408
409
410
411
412
413
414
415
416
417
418
419
420
421
422
423
424
425
426
427
428
429
430
431
432
433
434
435
436
437
438
439
440
441
442
443
444
445
446
447
448
449
450
451
452
453
454
455
456
457
458
459
460
461
462
463
464
465
466
467
468
469
470
471
472
473
474
475
476
477
478
479
480
481
482
483
484
485
486
487
488
489
490
491
492
493
494
495
496
497
498
499
</DataArray>
<DataArray NumberOfComponents='1' type='Int8' Name='IsActive' format='ascii'>
1
1
1
1
1
1
1
1
1
1
1
1
1
1
1
1
1
1
1
1
1
1
1
1
1
1
1
1
1
1
1
1
1
1
1
1
1
1
1
1
1
1
1
1
1
1
1
1
1
1
1
1
1
1
1
1
1
1
1
1
1
1
1
1
1
1
1
1
1
1
1
1
1
1
1
1
1
1
1
1
1
1
1
1
1
1
1
1
1
1
1
1
1
1
1
1
1
1
1
1
1
1
1
1
1
1
1
1
1
1
1
1
1
1
1
1
1
1
1
1
1
1
1
1
1
1
1
1
1
1
1
1
1
1
1
1
1
1
1
1
1
1
1
1
1
1
1
1
1
1
1
1
1
1
1
1
1
1
1
1
1
1
1
1
1
1
1
1
1
1
1
1
1
1
1
1
1
1
1
1
1
1
1
1
1
1
1
1
1
1
1
1
1
1
1
1
1
1
1
1
1
1
1
1
1
1
1
1
1
1
1
1
1
1
1
1
1
1
1
1
1
1
1
1
1
1
1
1
1
1
1
1
1
1
1
1
1
1
1
1
1
1
1
1
1
1
1
1
1
1
1
1
1
1
1
1
1
1
1
1
1
1
1
1
1
1
1
1
1
1
1
1
1
1
1
1
1
1
1
1
1
1
1
1
1
1
1
1
1
1
1
1
1
1
1
1
1
1
1
1
1
1
1
0
1
1
1
1
1
1
1
1
1
1
1
1
1
1
1
1
1
1
1
1
1
1
1
1
1
1
1
1
1
1
1
1
1
1
1
1
1
1
1
1
1
1
1
1
1
1
1
1
1
1
1
1
1
1
1
1
1
1
1
1
1
1
1
1
1
1
1
1
1
1
1
1
1
1
1
1
1
1
1
1
1
1
1
1
1
1
1
1
1
1
1
1
1
1
1
1
1
1
1
1
1
1
1
1
1
1
1
1
1
1
1
1
1
1
1
1
1
1
1
1
1
1
1
1
1
1
1
1
1
1
1
1
1
1
1
1
1
1
1
1
1
1
1
1
1
1
1
1
1
1
1
1
1
1
1
1
1
1
1
1
1
1
1
1
1
1
1
1
1
1
0
1
1
1
1
1
1
1
1
1
1
1
1
1
1
1
1
1
1
1
1
1
1
1
1
1
</DataArray>
<DataArray NumberOfComponents='1' type='Int32' Name='ParticleTetID' format='ascii'>
1082
74600
6139
1877
72909
6842
64882
30045
17264
6374
69511
7770
7418
17191
27991
51070
74289
48588
6031
59535
58000
13538
72910
40110
79639
65132
7535
73570
12635
91905
69790
12044
30388
61943
2347
54237
64398
60470
43700
71866
26031
17425
10979
48397
74996
12887
11915
72293
49383
62859
78323
20881
74599
21077
19262
54075
20233
10850
56526
29384
19871
78323
37371
52222
64902
1259
44815
68858
52671
61565
46734
34
46253
63871
10550
14071
62870
68014
72436
66930
8787
75444
53936
67274
72909
17191
26194
79964
56961
60473
9125
78326
64032
68250
64952
1656
9506
44105
32144
52475
79538
7852
16661
3808
6109
70419
7265
62162
6109
71864
70317
2273
8137
51867
84151
64722
43697
53931
7975
18158
6947
32619
49380
69576
61601
17871
36745
62859
76059
31838
8606
12872
79637
58900
52121
78276
53479
61208
89903
5276
66933
67566
154759
57119
69825
91470
41950
67432
71474
146191
71393
32133
58686
63886
30070
7978
37428
7250
1657
9452
77225
9832
59622
4673
23887
67939
52133
43697
28988
37716
9817
32682
59444
35085
74398
66928
10690
55141
58091
63908
66936
27391
52059
29470
33366
52029
52013
1358
7243
6626
4673
74404
59080
67942
10172
71759
62162
36438
60052
31838
57805
66430
14811
65962
41495
62161
8912
29885
58252
1064
59714
62916
71036
70117
30199
64197
75190
62866
69107
14037
59314
7286
11249
58221
72905
44773
53182
22011
26381
30929
68250
13502
9953
58002
41172
16005
71831
4297
27475
27563
11913
83951
52120
74397
58885
7412
52050
38525
100116
6837
62861
62988
29474
29601
68858
9218
28811
8060
8675
34923
45080
16346
73304
77676
71878
61563
15101
19217
72046
6338
74369
2213
75643
9292
57786
7246
70498
59083
73464
71431
66375
61028
29947
49367
52923
8855
63931
2377
66160
6404
30315
57117
58884
2270
2715
52050
58253
6925
53883
15428
9490
56833
30027
-126563
42841
75125
71107
747
8547
37236
75128
11626
7984
64879
56956
11108
84716
5312
63873
75531
79304
75351
52194
41061
13049
65132
20666
48685
64195
65740
7398
7274
45697
58905
19061
59878
31370
53333
12097
57807
66425
7430
78755
90304
11771
70499
5652
6416
25123
140545
64949
29948
4125
32443
3511
2368
27795
71935
30945
29461
59368
58252
48369
72910
7664
99951
7482
17853
6814
67213
7502
7418
73571
28057
64145
7535
30532
48639
74291
67706
67275
71861
40073
71393
2276
34571
71969
77677
29567
7691
33871
11429
71109
39
63764
16359
31827
17009
52822
11863
72437
8326
11459
3293
64810
36437
43687
57173
64822
66733
32873
68250
40559
7978
71919
32612
59100
7169
7403
57789
37111
14595
27561
72407
44805
87185
60060
1081
58900
127228
32450
37984
65994
11405
2276
2087
75891
66538
57209
5039
58543
8977
72905
67275
7283
76009
70095
51949
59623
16361
5330
78755
71634
1612
10565
66414
15823
58668
63761
32441
7664
30324
53896
23849
7454
85276
41943
73571
10959
73174
4479
35265
2357
15861
-127033
67593
20666
28057
62859
7441
2355
75891
5024
56494
37182
72910
7412
39090
7394
53911
41626
37251
90304
24710
18670
58108
6863
52472
7169
62756
</DataArray>
<DataArray NumberOfComponents='3' type='Float32' Name='vels' format='ascii'>
0.922407 0.008747 0.000163
2.151801 0.063019 0.001171
1.193030 0.303433 0.012860
0.137829 0.021982 -0.000256
3.337776 -0.268862 0.001851
0.261153 -0.042859 -0.001087
3.230046 0.694137 0.000694
1.797596 -1.220799 -0.002280
0.624917 0.003029 -0.000870
0.023215 0.003756 -0.001552
1.610639 0.656634 0.000876
1.180234 -0.329425 0.002939
0.005006 0.000017 -0.001028
0.892863 0.010931 -0.000213
4.028546 -0.444073 1.059639
0.031568 -0.053020 0.013968
0.399843 0.645398 -0.000579
1.920284 1.239798 0.201747
0.103222 0.017464 -0.001351
3.364873 0.801777 -0.000053
0.061490 0.010078 0.000648
0.034044 0.009711 0.000366
2.706023 -0.313916 0.000219
0.725691 -1.331981 0.058626
1.380713 0.653586 -0.000365
2.024022 -0.050829 0.000587
0.029117 0.000061 0.000299
1.985298 0.060708 -0.001157
1.047141 0.159482 -0.000481
0.005405 0.000850 0.000090
0.002368 0.018493 0.004834
0.678134 -0.023815 0.000116
0.665410 1.016377 -0.000085
0.666055 0.328548 0.003734
1.797759 0.350582 -0.006428
1.313346 -0.811041 -0.069362
1.157064 0.197157 -0.001244
3.294929 0.635481 0.000653
0.001199 0.003885 -0.004420
2.377162 0.120697 -0.000278
4.310420 -0.222836 -0.010507
0.978008 0.531753 0.000472
0.551672 0.117589 0.000201
0.494543 0.975246 -0.000075
0.003299 0.010555 0.000300
0.027618 0.000203 0.001238
0.437261 0.006396 0.000641
0.547071 0.386306 0.018673
0.398708 0.687246 -0.001099
0.701985 -0.015707 0.001985
0.978209 0.401604 -0.000477
0.911123 -0.021149 -0.000602
2.306941 0.089206 -0.001786
0.967419 -0.007944 -0.000707
0.000253 0.000094 -0.000183
1.091107 1.228621 -0.000260
0.787301 -0.409323 0.000427
0.003882 0.000055 0.001682
1.180312 0.489353 -0.000115
0.609894 -1.206696 -0.012176
0.168679 -0.003034 0.000105
0.997661 0.428486 0.000588
1.052430 -1.248927 0.002147
0.496526 -0.382503 -0.000404
0.966897 -0.106819 -0.000147
0.078210 0.009440 -0.000162
2.273319 -2.197686 0.083282
1.484392 0.250745 0.000716
2.345610 0.465887 0.001511
2.377004 0.513912 0.000160
1.776760 -3.433693 -0.006732
0.000963 -0.001553 0.000016
0.659569 2.526639 -0.050826
2.078303 0.329865 -0.001230
0.587825 -0.003158 0.000032
1.715049 0.150046 -0.000182
0.713867 -0.004817 0.001462
2.217437 -0.098664 0.001515
0.254463 0.141605 0.026692
0.724835 0.012091 0.000737
1.091182 -0.152312 -0.000821
0.894223 -0.205908 0.005937
2.934025 1.217086 -1.097281
3.292965 0.777439 -0.000362
3.280364 -0.289268 0.000597
0.995035 0.015211 -0.000219
0.768964 1.443290 -0.003573
1.940636 0.009907 -0.000199
3.101447 0.729599 -0.003628
3.105152 0.598611 -0.002182
0.662799 -0.011844 -0.000141
1.272191 0.562203 0.000223
0.575575 0.055839 -0.001238
1.821641 0.542380 0.000734
2.213651 0.079960 -0.000625
0.638968 0.024098 0.000258
0.406412 0.005734 0.002832
8.626208 -3.466184 -0.087354
1.124402 -0.410193 0.011072
1.906500 0.328168 0.002431
1.507802 0.179100 0.000981
0.687724 0.197727 0.001099
1.108731 -1.197933 0.005690
0.007334 -0.000042 -0.000748
0.029573 0.004666 -0.000506
1.839285 -0.078558 0.000001
0.008047 -0.000001 -0.000258
0.112927 0.018165 0.001052
0.070053 0.011034 -0.002712
2.559700 0.112918 0.000672
3.542387 0.833049 -0.000118
0.001338 -0.000067 0.001216
0.905659 -0.107745 0.000016
1.621022 1.662789 -0.001607
13.997042 0.240994 -2.156751
1.755987 0.305228 0.006909
0.000449 0.001536 -0.003208
2.205637 1.044506 -0.486547
0.607197 0.175339 0.018103
0.921982 -0.147352 0.000542
0.723853 -0.185021 -0.000230
2.328522 -5.531370 -0.046397
0.329560 0.607119 0.016904
2.861840 0.625701 0.000233
0.637002 0.090056 0.001252
1.365105 -0.124162 0.000591
2.268972 1.708884 -0.000297
0.725913 0.004046 0.000830
1.905399 0.254558 0.000864
2.115081 -1.280129 0.059122
0.238806 -0.044385 0.000429
0.336185 0.002005 -0.003169
1.012737 0.485348 0.000242
2.336060 0.408012 0.000237
1.414125 1.748794 0.001843
1.807602 0.522604 0.000619
3.704667 0.675910 -0.522508
0.009662 0.000006 0.000240
1.315629 2.889716 0.021401
1.093942 0.015859 0.005054
0.733371 -0.010942 0.000831
1.570816 0.208850 -0.000752
-0.004460 0.008021 -0.008045
1.364556 0.032749 -0.001638
2.570571 -0.209613 0.001104
0.724209 2.204607 -0.214355
5.847066 -1.081698 0.030812
1.813906 -0.031930 -0.000950
1.109620 0.972045 0.001046
0.003398 -0.000509 -0.004067
2.221228 0.041083 -0.000816
1.079369 -0.361180 0.003263
2.616104 0.154798 -0.003769
1.731330 -0.142363 -0.000780
0.826378 0.501426 0.000337
0.144312 0.041364 -0.000187
3.532673 0.756636 0.125675
0.061577 -0.000157 0.002156
1.138319 0.048346 0.000042
0.910597 0.028934 -0.001627
0.810802 0.527625 0.015744
2.843129 0.750916 0.002429
1.890240 0.569324 0.000368
0.057077 0.008718 -0.000222
0.674417 0.725088 -0.000219
0.839785 0.243191 0.000025
0.834104 0.780291 -0.000244
0.000782 0.002471 -0.002179
0.071361 -1.368679 -0.019956
1.056391 1.654027 -0.013184
2.351182 0.647181 -0.000575
2.992974 -1.405505 0.498661
4.127948 -0.330145 -0.004645
3.835815 -2.835947 0.008234
0.572805 0.608416 0.001257
0.551633 -0.264522 -0.002104
0.000348 0.000512 0.000135
2.318411 1.431535 -0.297478
0.696836 0.013138 0.001711
4.321165 -0.387785 -0.000907
0.613142 -0.036964 0.000868
0.842282 0.262005 0.001196
1.520141 1.214009 -0.018672
0.746850 0.296855 -0.000783
0.839078 1.141012 0.000514
2.832744 -1.071668 -1.051549
1.172741 1.103050 -0.004120
1.037398 -0.471667 -0.000390
0.099848 -0.000454 0.000926
0.058697 0.009225 -0.000800
0.025387 0.004205 -0.000148
0.770967 0.640714 0.000803
1.607828 0.216681 0.002337
0.525266 0.204682 -0.007700
0.509046 0.032667 0.000123
3.334179 0.750227 -0.000802
1.191600 0.183158 -0.001293
2.954027 -0.857998 0.213532
2.046300 0.187659 -0.002584
2.040541 -1.254470 0.058129
3.851649 -0.275895 -0.005023
2.165341 0.012749 0.001241
1.228989 -0.426495 0.000213
1.689381 -0.030087 0.000504
5.182150 -0.378296 -0.002010
1.910878 0.281786 -0.000691
0.396594 -0.056336 0.001025
1.424656 0.984978 -0.000860
2.834219 0.655127 0.001645
0.203079 -0.000168 -0.001764
0.058216 0.058713 0.004584
1.800611 -0.033588 0.001896
1.604235 0.710003 0.001384
1.577289 0.212352 0.000936
1.442807 -1.269462 0.000653
2.226415 0.300556 0.001291
1.098681 0.451983 -0.000206
1.086304 0.061917 0.000511
0.451959 0.661898 -0.003205