<VTKFile type='UnstructuredGrid' version='1.0' byte_order='LittleEndian' header_type='UInt64'>
<UnstructuredGrid>
<Piece NumberOfCells='500' NumberOfPoints='500'>
<Points>
<DataArray NumberOfComponents='3' type='Float32' Name='Position' format='ascii'>
494.436396 198.840631 -4.677974
1029.059357 188.209033 -16.808274
-238.446238 351.200173 -6.041111
535.141222 257.952877 -6.369714
1029.278797 232.304881 -20.074967
-205.866419 121.714575 -2.099043
1029.253611 152.748402 -21.930599
708.962480 249.155179 -5.749927
491.771203 206.628755 -4.440069
-127.664665 280.265700 -5.018396
1029.136333 154.676584 -29.201451
21.807201 80.966960 -30.465093
-179.244900 222.898467 -5.966343
472.745408 55.113588 -4.459710
564.379252 206.405178 -4.583251
1029.359902 252.147987 -15.006536
814.489453 176.008443 -6.587948
1029.087137 262.783777 -11.868301
-192.538992 311.169314 -6.771747
1029.193912 138.980634 -19.474711
782.758935 147.332541 -13.150301
258.412008 169.748576 -4.223459
1029.076102 228.539705 -26.569211
460.842450 396.406658 -3.985831
1029.103216 249.678682 -17.080837
1028.990499 208.533237 -16.447437
579.983158 163.998524 -17.593303
1029.136178 186.426719 -8.694585
1.256532 294.919414 -37.558276
560.762923 366.804743 -7.552471
593.997871 215.313402 -12.268794
244.729700 187.338977 -2.682730
907.025571 295.919939 -8.638984
922.362605 218.028097 -9.766674
422.306524 386.274159 -3.543799
714.024029 187.330289 -7.848397
1029.074164 155.183680 -27.112406
1029.321351 153.281068 -16.377951
456.203361 83.652950 -32.515489
1028.982668 142.206514 -26.628187
688.215022 50.817254 -6.248593
526.666900 82.496465 -2.876840
2.828357 185.401028 -37.033619
884.212322 102.890050 -29.849170
654.493402 214.564657 -17.587736
-272.362518 218.325793 -37.613040
0.012015 120.149295 -35.174239
753.787404 216.046925 -8.977352
1029.339088 256.934836 -22.392138
620.719679 188.917376 -7.049856
1029.096555 251.048780 -9.627166
565.247288 255.122531 -5.662810
1029.044092 190.888146 -17.070591
58.337826 279.159246 -37.281674
-491.811035 186.640245 -1.978326
1029.140656 185.673421 -7.749712
311.776942 301.646841 -5.465133
-297.384516 182.339837 -31.573383
1029.281029 251.617953 -16.541149
591.379555 6.276707 -11.676201
0.043989 175.907026 -33.977708
1029.144067 251.298274 -9.433218
496.666912 389.856582 -8.204438
758.012518 184.087068 -10.670171
1029.099325 207.296483 -29.207397
0.053996 260.674694 -37.446609
500.005557 101.733617 -36.620678
1029.003818 260.121252 -19.353480
1029.219105 141.565174 -7.227381
1029.030335 140.847806 -10.327024
1029.210581 151.177371 -10.058554
-342.934745 183.120451 -34.937874
422.743582 386.163063 -3.664093
1029.370072 249.889205 -17.917543
330.801370 236.516375 -3.112391
568.672518 204.045944 -29.903791
751.112455 216.104316 -28.781260
1029.088630 226.583231 -26.791639
606.085953 191.452625 -8.218900
622.729457 181.841916 -13.334953
491.018686 46.221192 -6.233157
1029.075219 199.084609 -13.594524
1029.306689 250.607125 -21.757990
1029.275264 140.263570 -17.033113
1029.110714 228.986199 -22.802082
476.599619 57.427336 -4.302286
880.931670 305.669025 -10.570457
1029.150350 191.275146 -16.086105
1029.304192 140.303527 -20.675616
1029.296586 152.742705 -21.728450
27.170684 235.905895 -35.298404
1029.317875 251.504023 -16.457303
1029.142010 196.584875 -14.344229
1029.292726 155.217574 -29.018318
1029.213633 188.409014 -16.858498
277.850853 214.010645 -2.656430
14.974181 227.115359 -2.488270
623.197700 261.263850 -6.189406
1029.337316 249.376128 -23.538960
1029.006290 140.497051 -6.606818
1029.101994 154.322595 -29.456101
-79.591788 385.784119 -12.156777
1029.023898 231.951962 -20.916878
-432.527135 176.884885 -26.658961
-389.446565 245.938105 -19.999956
1029.244989 230.300666 -9.687840
612.822377 168.850140 -20.574832
1029.318341 165.992030 -17.959244
-310.566870 257.681418 -19.818660
1028.977543 140.299234 -17.001177
1029.189046 140.141349 -19.420439
-501.884275 192.345694 -9.682246
219.052229 225.383930 -2.887969
1029.088515 191.145182 -20.070877
1029.119364 214.611647 -7.296110
1029.162892 231.219450 -28.952026
363.106895 74.321196 -21.637417
1029.069190 250.884586 -9.429735
-226.446321 357.142791 -5.572930
808.603442 177.017339 -22.351766
-0.998112 74.879602 -35.902331
671.843003 160.133059 -4.941166
1029.203531 259.133438 -14.979347
1029.386622 140.349597 -17.517165
682.288926 214.921989 -8.824604
107.158299 248.897080 -33.897541
377.639320 41.467018 -2.348081
598.532245 213.571295 -7.159004
1029.257480 229.715106 -21.899225
1029.221177 141.549552 -28.168380
-41.663146 107.533304 -4.936337
-236.666013 214.069878 -5.290416
1029.184340 250.622315 -9.354484
1029.115912 138.104862 -11.754595
1029.020587 188.147850 -23.823336
1029.259073 166.069571 -28.080659
1029.121508 190.466885 -8.136797
850.951351 218.279148 -17.683987
422.237684 386.356569 -3.913509
-238.858101 212.591455 -3.797174
1028.976683 198.275371 -20.143932
1029.216848 231.067388 -27.441933
506.108698 106.552404 -36.488459
1029.134359 189.002731 -8.993922
1028.982673 228.031097 -11.093356
582.190347 366.544159 -6.576521
565.988653 8.130198 -20.017812
1029.064718 230.128527 -9.890916
1029.261154 171.158954 -29.184869
381.472231 52.266270 -10.001146
1029.152980 136.636137 -10.985803
645.506671 342.682387 -6.223443
1029.072949 189.720784 -13.672791
1029.126679 229.823613 -11.368067
1029.116635 266.379400 -22.171789
107.405324 271.690323 -13.265222
1029.194718 140.926378 -10.790143
-167.746455 180.052545 -31.681330
208.380562 189.853018 -2.927926
86.339686 218.615650 -5.558205
700.798702 220.420416 -12.355137
44.649246 316.340671 -13.338808
1029.165082 249.277036 -18.436584
776.185381 245.753717 -17.270482
522.490863 72.834320 -2.665126
856.437586 215.241652 -13.759115
1029.162656 250.509853 -9.214404
313.965425 172.079316 -26.572967
507.949618 3.929581 -13.173167
533.733380 10.085101 -12.428822
-128.921373 385.403405 -18.925496
1028.993105 141.600352 -27.791848
1029.312762 229.305865 -15.668280
584.889895 225.213935 -4.412786
1029.207264 189.143456 -11.935037
775.414608 180.179972 -12.384164
-521.948284 274.735551 -37.144060
978.308536 177.543150 -19.456573
741.237217 187.387683 -9.562544
1029.259166 229.986926 -17.220021
1029.103068 198.247599 -27.320136
1028.989402 252.799752 -25.582654
1029.160703 187.417509 -7.500706
1029.086343 261.955222 -10.171866
90.113361 179.365979 -26.206386
1029.196213 265.861447 -23.563606
1029.060599 250.741090 -23.158830
524.549491 364.022426 -11.198250
-240.755755 175.751571 -19.933692
-228.806885 300.031823 -3.446890
878.309980 237.702138 -21.275416
1029.139103 188.001014 -24.091368
1029.296602 165.116357 -11.684768
654.139015 214.388267 -28.478352
165.957270 209.367209 -2.731582
1029.246652 152.097065 -21.274371
1029.238727 166.185289 -18.220476
584.171706 6.254746 -12.404031
1029.317852 166.310171 -11.196974
1029.074538 141.753036 -28.112455
1028.978325 226.681346 -19.098767
1029.070636 229.001683 -26.946571
138.055712 212.364619 -34.882712
1004.708039 150.847542 -26.284516
599.150460 8.529698 -7.661914
1029.134247 165.425647 -17.916420
234.688617 170.008707 -5.015869
1028.993193 251.027087 -9.360745
1029.191202 138.906774 -12.100933
-223.718859 180.594842 -2.584922
720.557499 213.714124 -15.877749
1028.987540 207.207378 -15.083185
1029.256612 249.121303 -18.632310
1029.083419 261.565138 -18.628778
1029.186294 141.644426 -26.875536
1029.125480 163.915666 -20.865933
1029.067550 187.903334 -11.437351
643.821444 214.512879 -28.251567
1028.977323 191.701105 -10.560304
-31.175334 28.443507 -34.446238
1029.130325 227.908705 -11.363294
303.674493 177.614737 -29.312308
-34.456612 105.990517 -34.177969
1028.994581 191.539402 -20.807746
1029.089074 228.582486 -11.134421
1029.032689 139.337093 -11.491075
735.180111 180.482422 -26.239423
310.083933 159.486950 -36.624040
567.311921 8.063542 -20.058872
1003.843281 181.468857 -8.059355
1029.058995 154.448558 -27.720059
344.953555 262.341116 -3.328642
343.133522 240.791586 -36.122968
1029.130825 162.909080 -15.085360
1029.287445 139.578995 -9.591735
238.546938 312.090858 -6.818671
1029.138655 191.579951 -20.417899
569.612739 216.099264 -25.768208
599.489330 180.134086 -19.839386
858.049170 309.672079 -9.631977
268.388370 171.774347 -34.760665
720.936371 185.881627 -7.369746
1029.114565 185.116480 -26.917102
1029.027159 188.449629 -8.741109
1029.088616 227.990706 -18.525192
507.906341 129.854930 -23.850761
614.441587 190.661323 -29.981398
720.990045 341.233759 -8.185670
697.025559 53.726272 -6.632876
-1.814066 156.270286 -34.199319
861.899129 216.555274 -8.066675
1001.236576 213.220253 -16.841825
1029.000713 266.680231 -14.841078
1029.019230 264.554280 -17.341043
1029.020443 260.195748 -17.082613
304.486607 181.126836 -4.672848
593.105985 167.119236 -23.966475
-143.918861 383.546578 -30.753229
-58.122839 308.304927 -36.924499
567.716463 189.110483 -6.078554
318.487388 188.759702 -18.145717
354.436799 245.733799 -3.265206
1028.992364 140.724015 -18.226469
841.421570 190.683405 -14.544424
1029.288175 250.532170 -11.240318
1028.982169 140.578835 -8.523235
-0.019513 205.804516 -36.862496
-498.936315 188.817372 -24.861877
1028.991480 184.793799 -26.995024
-167.893808 278.815914 -4.196465
1029.263509 251.378450 -21.648380
-405.741040 126.072185 -35.858847
1029.055936 181.494904 -18.997324
311.075869 157.645703 -11.315736
1029.168282 189.604127 -16.148881
-159.050242 174.574937 -26.116930
1029.060040 188.469406 -26.483053
860.727031 158.954533 -19.857744
1029.062033 251.332961 -17.754174
736.912588 219.984406 -19.131981
1029.058731 251.612451 -21.507725
1029.209896 251.530546 -18.765869
1029.226357 141.141672 -26.962504
1029.035831 258.818714 -21.723534
1009.255535 185.971961 -7.728121
-58.239653 112.398808 -33.791192
1028.992617 143.275617 -33.765066
118.372767 245.898886 -3.974519
1029.052570 231.238678 -23.593649
499.916108 252.650401 -26.344070
640.131203 336.663297 -6.231742
1029.019086 186.784368 -8.920433
1029.062089 229.606706 -11.842059
-492.720939 185.904932 -3.458283
-7.474114 80.170421 -33.928065
722.665636 186.032585 -29.583155
1029.055737 139.105929 -11.640209
-83.445767 110.856331 -31.526740
1029.084872 192.212440 -20.238293
-273.512104 212.077776 -4.960291
-140.401051 217.370837 -12.680023
1028.996143 151.715862 -17.273462
1028.994285 231.174448 -6.028807
411.591621 245.039275 -3.410562
568.447072 205.406276 -5.255016
1029.256785 153.702561 -22.613375
1029.274629 189.295571 -19.419725
628.645390 369.257234 -15.510378
-17.603484 125.504919 -33.495756
1029.096721 252.600993 -23.946544
1029.235200 153.879772 -27.568629
-298.216328 212.284538 -36.533696
227.884616 265.725952 -26.682232
1029.273908 151.732683 -17.452964
1029.014351 139.407205 -11.818104
-204.010033 215.553606 -4.406547
1028.984348 184.826144 -32.941579
485.349901 61.523001 -3.791926
1028.980649 249.835231 -21.175183
697.459941 187.315662 -11.243502
1029.188393 230.634547 -28.444128
1029.080799 230.197874 -9.454699
590.750785 214.523840 -30.948313
543.933778 384.848453 -7.535883
288.375517 195.310096 -35.479846
1029.008500 206.564596 -15.792315
476.447857 75.706942 -2.378945
1029.067852 141.603446 -27.818469
1029.069269 165.176413 -18.524279
1029.133526 191.427176 -10.540003
-10.548116 221.272511 -3.029322
-142.162091 174.359120 -5.579258
530.568671 5.760420 -25.401275
1029.220334 140.786220 -22.054353
8.473525 233.210388 -37.697434
1029.175277 141.288491 -25.554240
344.658327 85.003656 -33.453760
707.655025 257.404060 -34.714910
541.234053 88.243120 -4.853433
1029.228811 229.056026 -21.423484
1029.263211 229.727649 -8.828450
-90.295029 220.151478 -32.208617
1029.255636 140.847097 -10.347196
870.744182 305.979436 -22.105236
7.250197 138.976847 -34.226070
1029.093018 189.431262 -22.359625
67.988405 288.982990 -2.553508
739.496778 249.191031 -16.823999
360.367998 72.067027 -27.455729
550.785687 171.371428 -11.159821
1029.146176 187.848913 -9.040993
1029.240783 141.515258 -27.379984
-295.741639 337.231055 -5.942245
1029.025452 191.423095 -15.451683
268.656017 303.417180 -5.910928
-231.993414 218.946310 -26.193215
487.049714 3.886609 -10.090638
1029.083022 262.773429 -19.497108
1029.086616 250.371744 -7.973811
1029.037398 262.781573 -26.167907
1029.137774 227.226450 -10.712844
1029.144133 141.824809 -12.094427
724.710231 343.645066 -7.737746
1029.072346 230.843770 -24.585391
30.751405 102.880775 -31.708222
551.448616 5.728971 -11.515795
303.674088 188.985329 -27.051648
351.118928 268.578847 -35.816633
-191.034191 117.701856 -26.135415
656.230589 123.729945 -6.089108
496.552705 116.523685 -23.419326
-177.645701 220.469419 -5.646283
1029.220458 185.847851 -11.251454
1029.284457 252.216365 -23.460776
1029.129728 164.701498 -20.667179
560.564814 166.401984 -19.584245
387.776624 289.171659 -6.698647
823.044010 102.581197 -6.740299
1029.029557 189.622144 -9.059488
1029.097936 262.061277 -16.866182
1029.292222 139.341657 -20.537809
1029.028994 140.404660 -8.938870
538.935050 9.925399 -6.885889
1029.005844 140.255329 -9.204981
-501.196274 193.371295 -16.462773
422.364659 386.234165 -5.736371
1029.087163 227.049554 -11.271518
638.716445 187.589828 -19.216165
705.793305 362.963209 -18.100797
-85.740035 10.526978 -11.597732
1029.284670 252.620977 -25.589771
-351.167957 212.074870 -37.932037
1029.146218 191.360374 -20.366622
782.716774 174.656752 -9.062361
1028.984297 152.167014 -15.410153
329.608079 229.080901 -34.386792
1028.977495 139.629717 -6.673073
-0.186151 343.312319 -34.819252
1029.217982 189.239624 -24.197824
-202.099165 177.388399 -5.585389
658.075890 214.756268 -9.206949
-291.745563 60.825845 -26.374992
961.182694 140.777380 -20.439394
27.873871 322.480839 -36.133335
1029.187656 251.079710 -22.841616
1029.318670 140.222168 -7.695200
353.074556 78.340478 -5.079652
1029.189180 152.203793 -9.786901
755.713844 184.074712 -10.595119
1029.020630 165.105675 -19.151886
656.198559 169.821660 -6.937595
1029.190473 154.549839 -27.821762
963.349172 123.796754 -6.766291
-187.017986 369.524785 -12.595343
1028.992859 189.529076 -21.214293
1015.337977 139.665131 -28.210501
1029.122687 189.627835 -12.980992
662.188243 257.247164 -8.248323
157.749640 189.336373 -11.877200
1029.067094 190.358882 -21.601804
1029.149717 228.931587 -26.989552
40.670215 164.360929 -35.719876
379.917004 361.741906 -5.642354
1029.126705 199.221430 -20.196635
824.626694 177.162975 -7.026854
1029.154759 191.002642 -23.581673
1029.118563 166.532241 -28.691753
523.720660 213.807666 -4.493079
1029.114841 139.297521 -11.567960
411.558032 245.110662 -3.276845
1029.136270 191.163161 -23.318089
530.248244 6.247492 -10.523499
1029.105731 205.069380 -15.635904
946.649227 137.285110 -19.404068
-501.423653 193.617855 -16.957913
309.354396 194.337472 -36.139546
1029.120078 187.702432 -9.310782
1029.163817 184.148452 -21.974278
1029.312471 248.234907 -9.873754
277.538587 196.645537 -35.456437
1029.328978 136.843542 -18.881703
557.646650 325.850900 -24.797521
1029.222021 229.310936 -11.098716
1029.172426 140.413768 -21.018412
349.407881 67.547360 -20.000142
1029.118423 167.132526 -29.081801
1029.032436 162.086172 -8.090933
916.075778 111.409398 -6.637206
1029.236015 251.014534 -17.909152
51.741475 235.092384 -37.056211
329.418145 256.808710 -3.192775
1028.977966 139.590846 -10.513834
1029.013381 155.959542 -27.775785
375.035360 240.155833 -18.981130
47.376408 237.084725 -36.798874
1029.030631 206.195502 -29.210784
502.632792 132.675168 -6.889663
1029.122752 191.332256 -15.803695
1029.022018 152.098673 -9.721617
986.917267 175.231260 -7.993439
-43.705453 19.725983 -31.740606
1029.034602 250.235039 -24.035320
720.327622 178.990363 -12.171379
315.027626 127.345526 -36.292327
-220.977265 218.792164 -6.109399
1029.121923 139.486113 -10.572183
719.480995 59.161337 -6.215274
1029.016906 187.725508 -9.274138
381.599970 254.682213 -19.824823
1029.281845 164.317919 -10.568704
0.833500 295.026697 -37.652130
617.479950 335.314833 -6.011103
2.919369 328.925105 -35.917616
356.780989 8.030967 -5.230135
400.884835 273.474580 -5.355285
1029.080642 139.809185 -8.448109
477.492096 83.167497 -2.365474
1029.190996 251.339016 -24.093351
673.876767 215.082318 -8.335867
-158.307460 213.809746 -19.300193
70.099417 303.012911 -37.214516
1029.091622 188.026010 -8.426024
303.313130 157.829174 -3.008869
1029.233175 246.857364 -23.058501
551.436407 384.573333 -26.218109
1029.182799 226.565878 -26.855878
461.865587 76.894944 -24.235928
928.690634 291.097439 -24.038246
569.177375 157.999207 -22.545230
836.136634 177.412017 -6.857604
1029.147602 265.728428 -24.808093
1028.979811 266.614511 -21.884949
544.510912 389.001388 -24.043149
89.744925 178.078970 -26.360711
378.075462 7.721897 -0.963226
1029.072314 141.391280 -11.738849
504.101257 55.666827 -5.305454
891.735898 104.710415 -6.004118
556.100135 319.627037 -6.920235
775.727744 215.580864 -17.510169
</DataArray>
</Points>
<PointData>
<DataArray NumberOfComponents='1' type='Int32' Name='ParticleType' format='ascii'>
1
1
1
1
1
1
1
1
1
1
1
1
1
1
1
1
1
1
1
1
1
1
1
1
1
1
1
1
1
1
1
1
1
1
1
1
1
1
1
1
1
1
1
1
1
1
1
1
1
1
1
1
1
1
1
1
1
1
1
1
1
1
1
1
1
1
1
1
1
1
1
1
1
1
1
1
1
1
1
1
1
1
1
1
1
1
1
1
1
1
1
1
1
1
1
1
1
1
1
1
1
1
1
1
1
1
1
1
1
1
1
1
1
1
1
1
1
1
1
1
1
1
1
1
1
1
1
1
1
1
1
1
1
1
1
1
1
1
1
1
1
1
1
1
1
1
1
1
1
1
1
1
1
1
1
1
1
1
1
1
1
1
1
1
1
1
1
1
1
1
1
1
1
1
1
1
1
1
1
1
1
1
1
1
1
1
1
1
1
1
1
1
1
1
1
1
1
1
1
1
1
1
1
1
1
1
1
1
1
1
1
1
1
1
1
1
1
1
1
1
1
1
1
1
1
1
1
1
1
1
1
1
1
1
1
1
1
1
1
1
1
1
1
1
1
1
1
1
1
1
1
1
1
1
1
1
1
1
1
1
1
1
1
1
1
1
1
1
1
1
1
1
1
1
1
1
1
1
1
1
1
1
1
1
1
1
1
1
1
1
1
1
1
1
1
1
1
1
1
1
1
1
1
1
1
1
1
1
1
1
1
1
1
1
1
1
1
1
1
1
1
1
1
1
1
1
1
1
1
1
1
1
1
1
1
1
1
1
1
1
1
1
1
1
1
1
1
1
1
1
1
1
1
1
1
1
1
1
1
1
1
1
1
1
1
1
1
1
1
1
1
1
1
1
1
1
1
1
1
1
1
1
1
1
1
1
1
1
1
1
1
1
1
1
1
1
1
1
1
1
1
1
1
1
1
1
1
1
1
1
1
1
1
1
1
1
1
1
1
1
1
1
1
1
1
1
1
1
1
1
1
1
1
1
1
1
1
1
1
1
1
1
1
1
1
1
1
1
1
1
1
1
1
1
1
1
1
1
1
1
1
1
1
1
1
1
1
1
1
1
1
1
1
1
1
1
1
1
1
1
1
1
1
1
1
1
1
1
1
1
1
1
1
1
1
1
1
1
1
1
</DataArray>
<DataArray NumberOfComponents='1' type='Int32' Name='ParticleID' format='ascii'>
0
1
2
3
4
5
6
7
8
9
10
11
12
13
14
15
16
17
18
19
20
21
22
23
24
25
26
27
28
29
30
31
32
33
34
35
36
37
38
39
40
41
42
43
44
45
46
47
48
49
50
51
52
53
54
55
56
57
58
59
60
61
62
63
64
65
66
67
68
69
70
71
72
73
74
75
76
77
78
79
80
81
82
83
84
85
86
87
88
89
90
91
92
93
94
95
96
97
98
99
100
101
102
103
104
105
106
107
108
109
110
111
112
113
114
115
116
117
118
119
120
121
122
123
124
125
126
127
128
129
130
131
132
133
134
135
136
137
138
139
140
141
142
143
144
145
146
147
148
149
150
151
152
153
154
155
156
157
158
159
160
161
162
163
164
165
166
167
168
169
170
171
172
173
174
175
176
177
178
179
180
181
182
183
184
185
186
187
188
189
190
191
192
193
194
195
196
197
198
199
200
201
202
203
204
205
206
207
208
209
210
211
212
213
214
215
216
217
218
219
220
221
222
223
224
225
226
227
228
229
230
231
232
233
234
235
236
237
238
239
240
241
242
243
244
245
246
247
248
249
250
251
252
253
254
255
256
257
258
259
260
261
262
263
264
265
266
267
268
269
270
271
272
273
274
275
276
277
278
279
280
281
282
283
284
285
286
287
288
289
290
291
292
293
294
295
296
297
298
299
300
301
302
303
304
305
306
307
308
309
310
311
312
313
314
315
316
317
318
319
320
321
322
323
324
325
326
327
328
329
330
331
332
333
334
335
336
337
338
339
340
341
342
343
344
345
346
347
348
349
350
351
352
353
354
355
356
357
358
359
360
361
362
363
364
365
366
367
368
369
370
371
372
373
374
375
376
377
378
379
380
381
382
383
384
385
386
387
388
389
390
391
392
393
394
395
396
397
398
399
400
401
402
403
404
405
406
407
408
409
410
411
412
413
414
415
416
417
418
419
420
421
422
423
424
425
426
427
428
429
430
431
432
433
434
435
436
437
438
439
440
441
442
443
444
445
446
447
448
449
450
451
452
453
454
455
456
457
458
459
460
461
462
463
464
465
466
467
468
469
470
471
472
473
474
475
476
477
478
479
480
481
482
483
484
485
486
487
488
489
490
491
492
493
494
495
496
497
498
499
</DataArray>
<DataArray NumberOfComponents='1' type='Int8' Name='IsActive' format='ascii'>
1
0
1
1
0
1
0
1
1
1
0
1
1
1
1
0
1
0
1
0
1
1
0
1
0
0
1
0
1
1
1
1
1
1
0
1
0
0
1
0
1
1
1
1
1
1
1
1
0
1
0
1
0
1
1
0
1
1
0
1
1
0
1
1
0
1
1
0
0
0
0
1
0
0
1
1
1
0
1
1
1
0
0
0
0
1
1
0
0
0
1
0
0
0
0
1
1
1
0
0
0
1
0
1
1
0
1
0
1
0
0
1
1
0
0
0
1
0
1
1
1
1
0
0
1
1
0
1
0
0
1
1
0
0
0
0
0
1
0
1
0
0
1
0
0
1
1
0
0
0
0
1
0
0
0
1
0
1
1
1
1
1
0
1
1
1
0
1
1
1
1
0
0
1
0
1
1
1
1
0
0
0
0
0
1
0
0
1
1
1
1
0
0
1
1
0
0
1
0
0
0
0
1
1
1
0
1
0
0
1
1
0
0
0
0
0
0
1
0
1
0
1
1
0
0
0
1
1
1
1
0
1
1
0
0
1
0
1
1
1
1
1
0
0
0
1
1
1
1
1
1
1
0
0
0
1
1
1
1
1
1
1
0
1
0
0
1
1
0
1
0
1
0
1
0
1
0
1
0
1
0
0
0
0
1
1
0
1
0
1
1
0
0
1
1
1
0
1
0
1
1
0
0
0
1
0
0
1
1
0
0
1
1
0
0
1
0
1
0
1
0
0
1
1
1
0
1
0
0
0
1
1
1
0
1
0
1
1
1
0
0
1
0
1
1
0
1
1
1
1
0
0
1
0
1
1
1
0
0
0
0
0
1
0
1
1
1
1
1
1
1
1
0
0
0
1
1
1
0
0
0
0
1
0
1
0
0
1
1
1
0
1
0
1
0
1
0
1
0
1
1
1
1
1
0
0
1
0
1
0
1
0
1
1
0
1
0
1
1
0
0
1
1
0
1
0
0
1
0
0
0
1
0
1
1
1
0
0
0
1
0
1
0
0
1
0
0
1
0
1
1
0
0
1
1
0
1
0
0
1
1
0
1
1
1
0
1
0
1
0
1
1
1
1
0
0
1
0
1
1
1
0
1
0
1
0
1
1
1
1
0
0
1
1
0
0
1
1
1
1
</DataArray>
<DataArray NumberOfComponents='1' type='Int32' Name='ParticleTetID' format='ascii'>
52273
-61515
12170
67555
-58962
6786
-66558
59311
52273
4628
-66561
38948
7525
52778
58574
-64917
63056
-68099
6645
-66554
62123
44786
-58961
81758
-64916
-70586
73771
-61512
26620
57459
62752
26478
62735
68134
-112396
63183
-66561
-66555
51529
-66557
57313
56846
30473
72014
62989
9503
30868
62969
-64920
61221
-64914
72074
-61515
29933
19262
-61512
36829
7358
-64917
61367
32974
-64914
53085
63203
-72213
30490
68956
-64917
-66552
-66551
-66552
13463
-112396
-64916
36918
75002
62978
-58965
65903
61224
52507
-72207
-64920
-66554
-58961
52778
60376
-61515
-66557
-66558
26675
-64917
-72207
-66561
-61515
31284
31806
70417
-64919
-66548
-66561
3496
-58962
3808
6109
-58955
74601
-59786
6433
-66554
-66554
2273
38466
-61518
-70584
-58965
85994
-64914
11269
65351
14506
56504
-64917
-66554
62915
33227
-146594
71427
-58962
-66560
15716
7471
-64914
-66588
-61518
-59791
-61512
69091
-112396
7472
-72210
-58965
68957
-61512
-58955
56683
61389
-58955
-59791
-156163
-66588
67645
-61515
-58955
-68105
24772
-66551
9391
39116
31502
62897
26052
-64916
69326
67214
69090
-64914
51022
69394
61403
10088
-66560
-58958
75584
-61511
63077
10690
58489
63095
-58958
-72213
-64919
-61512
-68099
98736
-68105
-64919
71933
7298
6662
77915
-61518
-59783
62996
37836
-66558
-59786
61366
-59783
-66560
-58958
-58965
45574
76186
70851
-59786
24986
-64914
-66551
7362
63026
-72207
-64916
-68102
-66561
-59788
-61511
62690
-61512
18555
-58955
30936
717
-61518
-58955
-66551
63101
49805
61389
73893
-66561
35335
27989
-59785
-66551
25851
-61518
77230
79909
60160
43467
63183
-61521
-61512
-58958
74295
61230
68403
56953
14542
56345
73430
-68103
-68102
-64917
48619
64954
7880
4533
73621
45080
46784
-66554
67039
-64913
-66551
5902
19217
-61521
6410
-64920
2213
-61514
45167
-61515
7319
-61517
69919
-64916
62935
-64920
-64916
-66561
-64920
73479
21381
-66564
47666
-58961
52444
67645
-61512
-58955
19262
20049
63194
-66551
23017
-61518
7418
17033
-66555
-58952
-126563
74990
-66558
-61514
58812
22121
-64919
-66561
7451
34194
-66555
-66551
9451
-61520
52632
-64920
63113
-58965
-58955
62761
61293
33424
-72207
52308
-66560
-59786
-61512
5904
10207
61408
-66557
31822
-66557
50937
59327
78338
-58962
-58955
22873
-66551
57881
30509
-61518
29826
74384
42746
78791
-61512
-66561
7958
-61515
29701
9424
52943
-68102
-64914
-68105
-58955
-66551
68889
-58961
37003
61961
50412
34955
6886
59077
52822
7526
-61511
-64920
-59788
59101
82961
56883
-61512
-68102
-66557
-66551
61725
-66551
2276
-112399
-58955
72691
65563
11920
-64919
12887
-61518
76721
-66555
42857
-66552
14903
-61518
7256
62987
7606
67527
24910
-64920
-66551
50906
-66552
63203
-59786
57783
-66561
58161
9742
-61518
71346
-61511
73877
39190
-61518
-58965
30995
49393
-72210
66657
-61518
-59791
64891
-66551
-126559
-61518
61403
-72207
58975
2276
48219
-61512
-61518
-64913
36771
-66591
72136
-58955
-66557
32427
-59791
-59782
78571
-64916
25899
34074
-66551
-66561
82989
25901
-72213
74289
-61515
-66552
79365
17402
-64919
63184
43665
7399
-66551
58249
-61512
82244
-59783
26620
69031
28852
47719
-127033
-66551
52310
-64919
62915
7513
29230
-61512
48690
-64919
61463
-58965
55145
60868
72047
68907
-68105
-68106
61301
98736
-153844
-66551
64730
58699
76827
63007
</DataArray>
<DataArray NumberOfComponents='3' type='Float32' Name='vels' format='ascii'>
0.372994 -0.348211 -0.001796
2.941750 0.743093 0.251364
0.081688 0.023699 -0.000106
0.709135 0.097044 -0.001870
4.011166 -0.808442 0.007605
0.317323 -0.049232 0.000258
5.291425 0.658114 0.015048
0.659860 -0.058711 0.001512
0.487310 -0.348405 0.001361
0.345803 0.052009 0.000594
4.043204 0.516567 -0.062035
0.356969 0.256051 0.011627
0.255029 0.001169 0.000212
1.398407 0.648395 0.002916
0.067266 0.064720 0.002724
4.781214 -0.633258 0.223552
0.010266 0.000092 0.000206
1.841632 -0.359408 0.096556
0.054646 0.008873 -0.000570
4.618366 0.202199 0.374453
0.015662 0.002539 0.000019
1.128442 0.171460 0.011299
3.564954 -0.948543 -0.100939
-0.005343 0.000194 0.000940
5.081494 -0.728568 0.061442
2.709453 -0.571234 0.037044
1.877962 -0.007815 -0.000070
2.291721 0.555347 0.251364
0.042804 -0.015279 0.000032
1.229070 0.106973 0.000382
0.209122 0.001593 -0.001247
1.926824 0.507490 -0.000405
3.084341 -0.930596 0.004660
2.648811 0.142572 -0.011202
30.832558 8.406263 0.242404
0.724648 0.006951 -0.000151
3.361597 0.485264 0.057820
5.072144 0.616756 0.203979
0.293156 0.237623 -0.001886
4.822554 0.159554 -0.071552
1.153242 0.272431 -0.000956
0.483532 0.245448 -0.000156
1.246435 0.625935 -0.000542
3.676837 0.878232 0.000289
0.980135 -0.006572 0.000886
0.011255 -0.000436 0.001018
0.000817 0.001736 -0.000000
0.353078 -0.001222 0.000332
5.038774 -0.652624 0.013047
0.106310 0.000367 0.001920
2.926561 -0.297746 0.581025
0.912087 0.089673 0.000549
2.831417 0.656188 0.157502
0.739008 -0.390905 0.000128
-0.000665 0.000310 -0.000289
2.459462 0.587685 0.168515
0.956487 0.168133 -0.000701
0.102935 -0.000363 0.002011
4.325011 -0.485807 0.474073
0.048745 0.000127 -0.000780
0.151353 0.113021 -0.000017
3.009809 -0.323029 0.523657
1.123610 -0.168352 -0.039950
0.337729 0.001403 0.000138
1.625300 0.032475 -0.102624
0.005700 -0.001436 0.000001
0.000186 0.000891 0.000000
4.340364 -0.231916 0.365021
3.114425 0.129711 0.500337
4.121013 0.480241 0.104173
3.314428 0.340714 0.441299
0.326461 -0.014729 0.000778
46.675339 14.517866 -0.076229
4.966831 -0.741021 0.103249
0.675599 0.357976 0.000886
-0.000167 -0.000662 -0.002408
0.022873 -0.000073 -0.000361
4.058145 -0.762731 -0.344492
0.292123 -0.000952 -0.000923
0.003389 -0.000001 -0.000049
1.501329 0.372921 0.001699
2.447300 0.404613 0.136695
4.955756 -0.666599 0.026369
5.270291 0.597518 0.093265
3.790543 -0.755850 0.004429
0.998416 0.463857 0.002828
2.896094 -0.782322 0.020192
2.891380 0.658313 0.072510
4.708169 0.714293 0.041555
5.286538 0.662013 0.016323
0.645972 -0.009212 -0.000246
4.335292 -0.493674 0.469468
2.376679 0.415278 0.303110
3.978817 0.514039 -0.035953
2.925429 0.736889 0.253986
0.880251 0.112131 -0.001704
0.749089 0.047103 0.000455
0.930346 -0.058628 -0.001440
4.657912 -0.665986 -0.017331
0.402313 0.016930 0.069481
4.122142 0.520750 -0.092827
0.655217 -0.009329 -0.000684
4.068510 -0.838672 0.002245
0.000754 -0.000020 -0.000932
-0.003024 -0.000495 -0.002597
3.529941 -0.711878 0.030954
2.152865 0.057492 -0.000169
5.068028 0.739679 0.098900
0.178580 0.028808 0.000238
5.282705 0.607003 0.090999
4.672356 0.220515 0.340548
0.001003 0.001547 0.000668
1.054357 1.489287 -0.024381
2.719856 0.689432 0.014472
1.875758 -0.371275 0.170103
3.526443 -0.813141 -0.314200
0.001688 -0.000782 0.003891
2.977139 -0.317598 0.549789
0.486004 0.137181 0.000330
2.080709 0.041818 -0.003112
0.052126 0.083295 -0.000116
1.168320 0.074894 -0.000031
5.097804 -0.739710 -0.004191
5.187976 0.534039 0.131804
1.088591 -0.012695 -0.001338
0.114123 -0.214925 0.002219
0.063052 -0.112684 0.126129
0.129345 0.000124 -0.001046
3.941319 -0.939718 0.019078
3.094111 0.466580 0.051646
0.456702 0.557596 -0.000560
0.499252 0.005025 -0.000093
2.947628 -0.317004 0.559127
3.315421 0.229466 0.303735
3.114699 0.812712 -0.006021
3.981705 0.784788 -0.179278
2.397503 0.576482 0.045044
2.109170 -0.029505 -0.002303
46.605008 17.425592 -0.121316
0.009428 -0.000005 -0.001261
2.453705 0.036037 -0.002453
3.273935 -0.703619 -0.146819
0.122476 0.145919 -0.000564
2.267504 0.537684 0.170558
3.031390 -0.650702 0.168210
1.047586 0.066738 -0.001016
0.008576 -0.000003 -0.000050
3.485382 -0.705401 0.047642
4.244217 0.718171 -0.088138
0.078912 -0.035162 -0.038296
3.309975 0.272851 0.268077
0.317199 -0.047775 -0.000533
3.143853 0.750221 0.009430
3.065246 -0.673178 0.198509
4.241233 -0.744797 0.007929
1.452933 -1.970541 0.008744
3.991307 0.425104 0.155119
0.902056 -0.004675 0.000009
3.502967 0.543886 0.007182
0.784636 -0.380041 0.002848
0.010501 0.000001 0.000361
2.018694 -0.283593 -0.000652
4.864729 -0.743999 0.144699
3.288686 -0.298028 0.001590
0.572216 0.283454 -0.000279
0.952703 -0.007440 0.000519
2.983754 -0.330680 0.536378
-0.007022 -0.031489 0.000806
0.068316 0.000050 -0.000903
0.220602 0.000133 0.000035
0.100208 0.029230 0.000490
2.912069 0.446903 0.058844
4.195891 -0.823559 0.007726
0.430877 0.043415 -0.000605
3.421469 0.801853 0.232091
0.148670 0.000555 0.000570
-0.001456 -0.000025 0.000116
3.256035 0.251889 0.002436
0.056116 0.000063 0.000612
3.998002 -0.839101 0.052347
2.110943 0.365026 -0.216448
4.558290 -0.718325 -0.153658
2.517882 0.602668 0.087560
2.602964 -0.618944 0.038887
0.001291 0.000084 0.000210
3.746715 -0.624846 0.010220
4.537418 -0.639668 -0.001990
1.360308 -0.070699 0.000546
0.013054 -0.000002 0.000324
0.102144 0.016651 -0.000497
4.592098 -0.445078 -0.004252
3.114020 0.835475 0.004567
4.032579 0.575637 0.282121
0.026644 -0.000042 -0.000075
2.651823 -0.071703 -0.002896
5.273003 0.663612 0.018242
5.040750 0.742126 0.111195
0.327043 0.000200 -0.000557
4.238118 0.605920 0.212747
3.032198 0.458377 0.052126
3.570209 -0.858505 0.231158
3.211295 -0.716464 -0.163990