<VTKFile type='UnstructuredGrid' version='1.0' byte_order='LittleEndian' header_type='UInt64'>
<UnstructuredGrid>
<Piece NumberOfCells='500' NumberOfPoints='500'>
<Points>
<DataArray NumberOfComponents='3' type='Float32' Name='Position' format='ascii'>
-238.420691 230.774982 -4.882449
-63.342211 177.436380 -21.524024
-460.530035 287.834870 -6.401557
-279.575009 260.365527 -10.173249
-11.208859 265.268277 -22.703247
-393.206435 148.768534 -1.989137
-44.573646 158.495890 -27.980935
-204.463161 311.434153 -7.287066
-240.427879 229.926342 -5.109664
-342.684709 249.110521 -4.686748
-113.214669 130.673917 -32.502621
-391.975763 86.365903 -29.922345
-357.194476 219.671222 -5.939561
-267.265395 147.527619 -3.978932
-121.688462 254.926064 -6.850961
31.743927 297.325247 -16.289447
-68.934193 159.148423 -9.211736
-29.856404 348.778307 -14.976431
-378.722148 278.541776 -6.314739
-24.585335 93.835955 -21.395517
23.479062 192.204868 -16.282602
-265.988835 73.619383 -4.267181
4.481295 255.577929 -26.062335
-138.432641 380.937976 -15.698388
30.490776 292.911569 -19.382510
39.746779 249.040108 -20.958584
-351.947011 211.682856 -23.991157
-26.431734 188.182934 -14.547266
-300.468604 306.705660 -37.520725
-140.319906 361.227052 -7.048280
51.732042 236.395712 -15.956777
-313.054255 161.633302 -2.621735
-95.150974 374.044869 -11.481987
-42.720636 242.679726 -11.513590
-440.576986 290.799587 -19.901323
-99.302200 232.284744 -9.005534
-36.822247 162.230194 -27.497727
-29.431786 100.234140 -20.182687
-130.129949 227.757458 -30.883645
-71.691302 50.210278 -28.208622
-155.584393 46.928168 -7.141308
-267.862552 154.968914 -3.967938
-279.086167 155.307405 -36.985729
-212.115609 48.459113 -32.487311
50.119131 233.770313 -21.461705
-423.772088 217.433011 -37.715164
-285.482668 81.797679 -35.277152
30.456368 246.562259 -14.367991
0.397217 319.380833 -22.815328
-56.755619 239.598700 -9.820960
-9.412900 301.648513 -13.470990
-250.757485 241.291301 -6.443598
-39.106149 188.302560 -19.049678
-294.905754 310.038985 -37.341821
-501.728296 192.386427 -2.805812
-142.706254 163.525376 -8.008106
-241.672615 321.653131 -5.677075
-486.945344 182.859637 -32.758202
28.113121 304.144639 -20.867339
-106.504975 25.794759 -14.409376
-316.173139 153.393487 -34.044862
-26.013754 304.112763 -13.520671
-161.825673 371.831830 -10.063537
-56.999017 232.316348 -10.731487
-82.536221 246.450719 -31.696613
-334.997481 241.711836 -37.387479
-197.928424 165.989063 -32.660350
29.912172 296.742704 -19.736235
-98.565847 49.118873 -9.102182
-30.127508 82.441682 -15.298698
-185.302773 83.099935 -14.237704
-416.342471 183.979372 -35.424254
-88.133507 380.231106 -21.716588
-1.206980 295.640103 -25.017795
-278.569983 233.520199 -2.943047
-314.892050 222.174003 -32.766947
-57.206101 244.064691 -29.624762
-49.754671 257.736294 -28.420226
27.635770 238.090637 -15.221408
-19.133093 229.731993 -15.925154
-390.255574 151.162578 -6.653244
14.983227 234.238897 -16.272795
-40.383390 341.930770 -28.076138
-46.098004 88.188529 -20.767507
-15.299639 265.799490 -20.513145
-292.680165 150.065994 -3.580147
-130.988655 372.031942 -11.870511
-48.064225 184.375249 -18.631669
-32.872766 60.015289 -23.240644
-26.999465 167.232138 -27.130157
-277.779577 227.845932 -35.296154
32.885675 295.930283 -20.509248
41.219787 234.712026 -18.027548
-110.792898 130.906901 -32.170522
-70.668079 174.464729 -22.718412
-323.852149 226.525941 -2.637629
-356.849898 218.373713 -2.361962
-243.793240 264.298054 -10.117574
-98.760695 341.359916 -30.878037
-104.214322 57.612745 -9.545340
-100.919411 133.509629 -31.747222
-401.003374 307.987898 -12.262733
-271.001704 296.720387 -23.487203
-433.122660 176.987255 -26.667658
-411.676349 247.669882 -19.169194
-52.690626 258.792315 -13.040062
-332.680098 179.466020 -24.524240
18.901693 186.748042 -20.130025
-401.121131 243.835561 -19.456295
-51.744417 37.796512 -21.066127
-34.309726 88.894220 -24.505328
-502.603034 192.136501 -10.328449
-271.421732 327.998779 -3.429493
-223.134659 176.796423 -23.367033
-117.781376 257.371100 -7.165368
-97.797545 262.647343 -31.928308
-25.194036 226.826808 -24.437200
-46.302571 327.612739 -13.246403
-462.811075 289.788221 -6.149301
-278.204853 212.468273 -27.365780
-317.213113 73.641274 -36.025829
-206.215267 156.524307 -6.770334
4.696693 316.125823 -15.808872
-23.166979 68.651462 -20.077926
-45.319350 244.373362 -10.472399
-278.679028 323.006865 -33.935855
-247.724040 133.477116 -17.898009
-56.995934 240.965031 -10.055953
-140.876750 275.242604 -23.819286
-132.353302 54.438819 -32.399488
-336.953539 106.531229 -4.629569
-448.633133 213.198778 -4.964709
4.300784 297.930192 -13.914774
-27.199920 68.646680 -16.288094
-157.866024 172.970101 -27.159377
-80.908116 152.377175 -30.896186
-176.297374 171.724901 -9.034891
-10.831930 237.909563 -20.008665
-122.427329 381.312802 -23.309099
-452.189281 211.272844 -3.520737
-69.614955 222.899093 -20.317677
-90.499048 261.509352 -30.783571
-137.198903 161.042224 -32.401051
24.682467 204.563101 -17.432986
17.516878 254.715676 -14.971545
-123.229307 376.430565 -11.185342
-114.866475 18.755457 -23.522953
-59.241326 268.171734 -11.920173
-98.612990 148.657349 -31.420798
-108.569995 154.361590 -32.757023
-85.092347 51.431736 -13.274228
-78.052636 347.933549 -8.458555
27.002587 200.077129 -18.947064
-50.759014 277.514088 -17.328223
-67.987327 369.921407 -25.354869
-405.985694 301.318461 -13.352474
-137.027856 25.077226 -14.924989
-425.277940 181.262796 -32.659314
-330.464005 219.800677 -2.816300
-335.249026 219.851371 -5.324789
-37.210404 243.963437 -11.719676
-405.638251 301.458221 -13.364884
-37.181258 307.593276 -25.163716
-304.979179 286.141818 -21.757481
-288.755341 86.321112 -6.607332
-39.278697 244.845402 -11.956364
-72.370272 330.747240 -11.613906
-58.753649 221.919942 -24.341054
-113.151381 26.264625 -14.150908
-180.760131 34.107926 -13.993539
-461.012975 290.425444 -19.724051
-151.786787 71.237426 -28.971650
27.159138 254.192072 -19.069541
-255.150233 244.263509 -6.660202
-126.211270 173.382762 -15.002539
-51.096460 234.176056 -12.114722
-521.430243 274.368384 -37.166018
-79.927709 223.771093 -20.362074
-37.923767 249.018440 -11.105051
40.811157 247.792444 -22.109674
2.770621 234.276214 -24.445171
-100.092457 344.216725 -32.023284
-127.641356 156.585002 -7.768908
-60.775983 364.432897 -13.667887
-242.537507 51.185485 -27.091122
-3.336505 317.088296 -25.816688
-33.652454 338.043619 -27.574170
-328.555468 328.923606 -17.530027
-374.098308 177.016417 -19.911346
-392.971270 271.239124 -2.980277
-272.661898 298.172844 -24.712687
-103.562229 162.097389 -29.427894
-1.722809 177.204948 -15.946227
-30.169739 243.538132 -27.564486
-316.436820 311.157003 -2.772624
-56.620284 145.816140 -27.860901
37.424235 200.244707 -20.296233
-80.370036 27.039342 -15.414145
-70.051047 127.010289 -14.173650
-136.190403 55.923130 -32.841815
19.640663 253.499646 -23.880034
-84.258009 270.989152 -27.998198
-264.986973 325.973736 -34.818789
-93.109490 136.100181 -30.608598
-134.087411 26.778984 -10.633075
41.057867 200.418872 -21.070580
-315.163000 98.509975 -4.909311
-242.958476 310.092084 -12.751269
-22.851137 95.849472 -17.277720
-459.037270 183.126049 -2.367778
44.135298 237.039063 -19.017671
27.325949 239.580296 -20.009174
-31.234027 308.922399 -19.643827
29.910073 303.565296 -20.529863
-117.653700 42.783191 -31.972071
7.788506 183.709084 -23.883855
-117.825767 171.149057 -14.982008
-58.802291 247.080434 -29.557486
-59.520202 165.271353 -12.809752
-336.962975 75.645349 -34.671761
-15.481985 265.124054 -15.374364
-387.880820 183.218971 -30.155168
-347.628722 104.177117 -34.308424
-70.289342 220.665187 -22.756333
46.316512 246.395170 -17.003219
-213.385699 48.567599 -19.786822
-86.858516 233.316394 -28.658115
-308.177883 219.356163 -36.113419
-121.309232 20.312391 -24.011569
-191.855077 174.022278 -8.532411
-120.350290 122.800832 -29.690005
-270.043741 245.753434 -3.365690
-251.937496 227.148293 -35.980638
-61.200537 127.562705 -18.373259
-348.852280 84.241852 -13.378524
-309.095974 330.725089 -6.856185
-87.907338 171.463874 -24.020819
-334.171418 223.026357 -33.143138
-255.132082 220.992089 -18.792710
-111.910885 368.639877 -8.545014
-285.381197 82.732285 -34.647555
-118.221709 240.478173 -7.484578
-148.694300 170.914643 -28.883193
-91.024875 166.366770 -10.954739
19.143960 255.627349 -22.168817
-376.907629 211.581221 -29.906519
-92.249312 239.314344 -31.524176
-119.101691 380.474283 -14.491921
-193.580833 60.524002 -6.777016
-316.537987 140.464672 -34.919374
-66.455779 237.655768 -9.705875
57.271920 234.604307 -17.221258
-37.989933 364.410207 -17.792801
-63.715007 373.441873 -21.722535
29.159767 303.252046 -18.647952
-341.511803 176.154999 -4.799427
-277.328524 217.170674 -23.973868
-462.143895 292.204796 -31.948799
-349.455195 285.023080 -36.998542
-163.863475 238.069407 -6.738744
-30.030015 224.018789 -17.845630
-273.678097 232.770682 -3.473788
-32.375207 95.778257 -21.757122
36.662978 244.264768 -15.427657
12.094573 290.799371 -15.981691
-29.330891 92.350179 -16.446244
-296.870924 172.170500 -36.891568
-498.447581 188.270858 -23.964500
-82.636587 163.896791 -28.006599
-369.171184 248.886161 -3.892557
5.682644 301.160262 -25.422176
-406.245412 126.393438 -36.554074
-4.599216 196.733658 -24.758629
-296.098561 175.168725 -12.664142
-8.921736 198.126827 -22.224445
-376.771513 177.018423 -26.627750
-146.737985 169.634025 -27.856720
-16.615804 163.934157 -22.849369
18.351357 306.888734 -23.070918
-16.837258 252.206426 -26.988067
-2.698070 299.296216 -26.309379
5.910399 295.670857 -25.092923
-127.376808 51.138757 -32.160823
6.791119 315.093991 -23.068208
-152.589575 169.653956 -9.684992
-354.028544 143.875464 -34.537550
-75.324534 53.292720 -28.451357
-317.054950 324.851066 -4.322310
-102.605932 333.111624 -27.279751
-284.868212 254.682340 -32.368482
-95.495437 346.333070 -7.901703
-16.362323 188.446662 -13.838475
62.880768 237.888830 -19.285990
-503.058038 193.675871 -5.612441
-407.067597 100.232110 -33.749170
-92.503613 241.723584 -31.950625
-22.797184 92.143135 -16.845915
-340.381849 144.826197 -32.352760
-136.852527 217.983002 -21.664106
-476.639731 211.387231 -4.682115
-379.718416 215.077835 -12.635321
-188.395087 78.516257 -24.418175
-178.771720 318.678090 -8.159220
60.730934 239.552173 -17.731026
-140.678290 238.931948 -6.760142
-89.339884 144.739173 -31.915826
-63.349201 178.007076 -23.816960
-365.989550 310.762675 -20.005532
-346.057216 104.907935 -33.675651
-47.017891 351.196868 -28.074565
-78.294428 140.165188 -29.778465
-459.328208 211.963305 -36.515447
-366.221395 307.730818 -26.666553
-44.489175 89.735870 -18.705908
-25.009493 84.520543 -16.258676
-431.628502 213.457322 -4.043880
-108.033687 157.290161 -31.787351
-258.975816 156.685462 -3.791551
26.543134 304.967135 -21.219667
-19.629103 234.698656 -13.670456
-95.008401 258.459885 -32.292367
-47.677048 265.081843 -11.778202
-114.586122 235.217924 -32.361511
-160.112749 371.306805 -9.954340
-336.913617 177.412359 -35.710184
53.729879 235.781782 -16.470863
-286.660723 169.911257 -3.541668
-143.033461 35.697763 -32.632340
13.078936 185.363342 -21.148967
-101.818554 163.242058 -12.428992
-379.312829 214.706845 -2.898538
-354.584794 177.797506 -5.216454
-155.466590 32.616231 -31.193625
-56.040973 64.700290 -27.419740
-283.909723 227.849931 -37.738444
-59.449780 57.276733 -27.421380
-297.489433 219.309838 -31.504651
-111.518196 241.749306 -32.975299
-230.287263 148.807125 -5.996094
18.889657 253.320618 -23.633956
-63.007131 269.343721 -10.984612
-378.196994 217.000693 -32.911104
-78.231553 50.808975 -13.017424
-151.720146 371.888332 -27.715914
-325.583053 96.191144 -34.129895
-160.776359 169.995597 -27.281738
-340.620135 307.024556 -2.443228
-282.931724 253.600452 -19.612952
-150.801450 221.039810 -28.535365
-154.729394 224.514315 -8.825819
-30.474316 178.648923 -13.371261
-116.718099 47.588195 -31.744802
-499.026389 278.412475 -6.623805
-273.817906 177.833097 -17.441005
-216.090322 336.649372 -6.036410
-427.820086 217.783642 -26.533552
-200.763421 39.497220 -8.707648
16.125320 310.515485 -18.582105
-93.647039 343.565371 -8.247879
-102.700272 357.124912 -31.930512
31.666362 253.678737 -20.339652
-21.627308 94.309447 -18.154920
-110.036192 372.695906 -9.162318
-1.797077 260.739304 -25.916133
-403.440068 94.021563 -32.034505
-156.117558 26.764788 -14.548733
-411.625904 208.612571 -28.265770
-284.587843 251.978922 -35.937656
-341.233053 141.774606 -26.503121
-104.879142 140.129383 -7.598167
-376.067545 210.913261 -29.722138
-364.793110 217.134050 -5.398656
-48.502538 182.727379 -14.031711
-108.365112 343.226149 -32.774899
23.584335 198.232960 -22.282808
-363.920189 209.337397 -22.621240
-43.965045 338.499704 -11.505259
-206.963509 67.717715 -6.731918
-121.299959 168.052016 -10.694169
4.141933 317.996581 -17.445898
-27.980633 82.656081 -23.480974
-78.228922 50.910177 -10.951514
-190.805323 43.215263 -7.878411
-77.077891 56.696885 -12.738879
-502.168019 193.014838 -17.327806
-40.222175 361.860488 -25.287118
-82.528822 277.597248 -15.079615
46.816732 234.527156 -18.249529
-53.603038 372.515129 -24.324343
-368.656363 80.038008 -11.397915
-73.192659 349.483407 -29.952361
-483.422269 211.885222 -37.856432
-49.645221 186.945495 -22.994097
-292.072761 178.771720 -10.573436
-80.402999 62.468083 -19.000928
-283.318680 232.200395 -34.327738
-127.813600 51.355719 -7.961491
-323.671276 330.102755 -35.058176
-204.743683 167.875422 -26.184340
-431.391658 179.298107 -5.779506
11.388907 242.019248 -13.576759
-462.994963 111.725150 -26.426945
-281.774465 99.456176 -23.945977
-320.358690 327.533562 -36.057766
-30.477341 335.682303 -27.246344
-113.000050 47.898613 -8.450306
-115.195689 235.836197 -8.052760
-29.801242 97.852714 -16.660941
-70.472796 233.419744 -10.131017
31.379136 203.410897 -20.834233
-241.126005 177.312367 -7.587555
-114.763083 125.886508 -31.222195
-206.101637 47.906913 -13.172969
-464.887816 289.589014 -13.079987
-4.940324 194.097308 -25.807615
-271.729090 69.411276 -33.168959
-96.791060 171.381697 -17.233041
-287.350118 296.840175 -11.631007
-371.122780 212.152617 -11.165868
-4.882882 194.081566 -25.855074
-156.461884 271.645105 -30.554313
-273.276795 76.647289 -35.815188
-128.434169 355.410371 -7.113396
15.687041 236.101948 -24.961145
-185.382707 173.864115 -9.234091
-149.817927 221.784252 -29.700442
-42.096065 174.785081 -27.853962
-225.904640 237.545710 -5.985423
-32.597753 67.482528 -14.913545
37.999110 247.632506 -22.133617
-225.802836 179.416266 -28.358497
-160.075116 30.277015 -10.563154
48.791079 243.051962 -16.286386
-267.484033 132.671124 -23.720583
-502.152037 194.018203 -18.210750
-366.278370 218.388342 -36.291132
-94.426709 165.399341 -10.640818
-80.218006 170.962692 -24.637025
15.339773 288.449239 -17.596174
-305.877567 172.268823 -35.549330
-20.210255 89.824279 -20.804074
-306.548062 295.121611 -31.850256
53.575789 240.275036 -19.588793
-34.509776 88.305023 -24.785564
-422.297344 185.206049 -22.388279
-82.766204 152.723544 -31.168371
-95.237493 128.071956 -9.379453
-98.350016 53.360676 -9.247418
25.209376 304.978952 -22.249894
-279.400792 232.374643 -37.040179
-276.221898 242.851044 -3.061085
-72.991345 48.752498 -11.511916
-106.882879 139.729228 -32.837657
-276.232562 181.892929 -27.143811
-322.290276 231.224898 -36.853209
-85.028311 245.572863 -31.810804
-239.090316 161.017209 -6.313566
-85.333269 168.114723 -18.778804
-32.171272 93.318218 -15.970252
-214.619029 171.219405 -7.396673
-413.367277 96.407396 -32.155127
-95.323091 343.458582 -31.440653
-80.928316 231.370677 -12.448871
-263.277414 222.206742 -35.557238
-392.353120 216.178067 -5.594075
-88.060688 28.277687 -14.515419
-150.222119 44.017915 -7.302174
-24.618640 187.852627 -14.374970
-277.872780 239.603436 -35.031782
-74.999675 131.564171 -11.474630
-305.373380 305.843786 -37.663306
-135.001038 339.992206 -6.843512
-309.142821 328.083648 -35.959926
-213.900579 41.313522 -8.444358
-113.586292 327.677756 -24.236891
-96.066462 50.567375 -9.350862
-261.409703 166.787387 -3.669704
-107.460168 349.294414 -32.642701
-60.652562 233.638436 -10.098274
-415.884335 212.549947 -19.381107
-339.326675 316.861058 -37.456603
-80.298707 158.194493 -8.951724
-317.231110 172.617494 -3.070340
-30.744126 314.962324 -27.425550
-121.077501 372.153405 -30.442648
1.336389 258.539672 -25.561753
-377.451344 211.261483 -29.943463
-114.144571 371.833464 -30.238506
-364.596408 182.857889 -29.755175
-135.716019 223.425253 -9.732963
-16.578335 331.906907 -25.525276
-27.514574 350.437493 -22.364763
-153.651799 371.697801 -27.363998
-175.711845 32.147644 -29.765206
-313.849804 73.154890 -12.915134
-32.721500 61.197955 -15.315829
-300.999028 135.569729 -9.609019
-90.045584 56.535868 -9.537720
-289.540921 293.611377 -10.159331
70.034658 234.070164 -20.218950
</DataArray>
</Points>
<PointData>
<DataArray NumberOfComponents='1' type='Int32' Name='ParticleType' format='ascii'>
1
1
1
1
1
1
1
1
1
1
1
1
1
1
1
1
1
1
1
1
1
1
1
1
1
1
1
1
1
1
1
1
1
1
1
1
1
1
1
1
1
1
1
1
1
1
1
1
1
1
1
1
1
1
1
1
1
1
1
1
1
1
1
1
1
1
1
1
1
1
1
1
1
1
1
1
1
1
1
1
1
1
1
1
1
1
1
1
1
1
1
1
1
1
1
1
1
1
1
1
1
1
1
1
1
1
1
1
1
1
1
1
1
1
1
1
1
1
1
1
1
1
1
1
1
1
1
1
1
1
1
1
1
1
1
1
1
1
1
1
1
1
1
1
1
1
1
1
1
1
1
1
1
1
1
1
1
1
1
1
1
1
1
1
1
1
1
1
1
1
1
1
1
1
1
1
1
1
1
1
1
1
1
1
1
1
1
1
1
1
1
1
1
1
1
1
1
1
1
1
1
1
1
1
1
1
1
1
1
1
1
1
1
1
1
1
1
1
1
1
1
1
1
1
1
1
1
1
1
1
1
1
1
1
1
1
1
1
1
1
1
1
1
1
1
1
1
1
1
1
1
1
1
1
1
1
1
1
1
1
1
1
1
1
1
1
1
1
1
1
1
1
1
1
1
1
1
1
1
1
1
1
1
1
1
1
1
1
1
1
1
1
1
1
1
1
1
1
1
1
1
1
1
1
1
1
1
1
1
1
1
1
1
1
1
1
1
1
1
1
1
1
1
1
1
1
1
1
1
1
1
1
1
1
1
1
1
1
1
1
1
1
1
1
1
1
1
1
1
1
1
1
1
1
1
1
1
1
1
1
1
1
1
1
1
1
1
1
1
1
1
1
1
1
1
1
1
1
1
1
1
1
1
1
1
1
1
1
1
1
1
1
1
1
1
1
1
1
1
1
1
1
1
1
1
1
1
1
1
1
1
1
1
1
1
1
1
1
1
1
1
1
1
1
1
1
1
1
1
1
1
1
1
1
1
1
1
1
1
1
1
1
1
1
1
1
1
1
1
1
1
1
1
1
1
1
1
1
1
1
1
1
1
1
1
1
1
1
1
1
1
1
1
1
1
1
1
1
1
1
1
1
1
1
1
1
1
1
1
1
1
1
1
1
1
1
1
1
1
1
</DataArray>
<DataArray NumberOfComponents='1' type='Int32' Name='ParticleID' format='ascii'>
0
1
2
3
4
5
6
7
8
9
10
11
12
13
14
15
16
17
18
19
20
21
22
23
24
25
26
27
28
29
30
31
32
33
34
35
36
37
38
39
40
41
42
43
44
45
46
47
48
49
50
51
52
53
54
55
56
57
58
59
60
61
62
63
64
65
66
67
68
69
70
71
72
73
74
75
76
77
78
79
80
81
82
83
84
85
86
87
88
89
90
91
92
93
94
95
96
97
98
99
100
101
102
103
104
105
106
107
108
109
110
111
112
113
114
115
116
117
118
119
120
121
122
123
124
125
126
127
128
129
130
131
132
133
134
135
136
137
138
139
140
141
142
143
144
145
146
147
148
149
150
151
152
153
154
155
156
157
158
159
160
161
162
163
164
165
166
167
168
169
170
171
172
173
174
175
176
177
178
179
180
181
182
183
184
185
186
187
188
189
190
191
192
193
194
195
196
197
198
199
200
201
202
203
204
205
206
207
208
209
210
211
212
213
214
215
216
217
218
219
220
221
222
223
224
225
226
227
228
229
230
231
232
233
234
235
236
237
238
239
240
241
242
243
244
245
246
247
248
249
250
251
252
253
254
255
256
257
258
259
260
261
262
263
264
265
266
267
268
269
270
271
272
273
274
275
276
277
278
279
280
281
282
283
284
285
286
287
288
289
290
291
292
293
294
295
296
297
298
299
300
301
302
303
304
305
306
307
308
309
310
311
312
313
314
315
316
317
318
319
320
321
322
323
324
325
326
327
328
329
330
331
332
333
334
335
336
337
338
339
340
341
342
343
344
345
346
347
348
349
350
351
352
353
354
355
356
357
358
359
360
361
362
363
364
365
366
367
368
369
370
371
372
373
374
375
376
377
378
379
380
381
382
383
384
385
386
387
388
389
390
391
392
393
394
395
396
397
398
399
400
401
402
403
404
405
406
407
408
409
410
411
412
413
414
415
416
417
418
419
420
421
422
423
424
425
426
427
428
429
430
431
432
433
434
435
436
437
438
439
440
441
442
443
444
445
446
447
448
449
450
451
452
453
454
455
456
457
458
459
460
461
462
463
464
465
466
467
468
469
470
471
472
473
474
475
476
477
478
479
480
481
482
483
484
485
486
487
488
489
490
491
492
493
494
495
496
497
498
499
</DataArray>
<DataArray NumberOfComponents='1' type='Int8' Name='IsActive' format='ascii'>
1
1
1
1
1
1
1
1
1
1
1
1
1
1
1
1
1
1
1
1
1
1
1
1
1
1
1
1
1
1
1
1
1
1
1
1
1
1
1
1
1
1
1
1
1
1
1
1
1
1
1
1
1
1
1
1
1
1
1
1
1
1
1
1
1
1
1
1
1
1
1
1
1
1
1
1
1
1
1
1
1
1
1
1
1
1
1
1
1
1
1
1
1
1
1
1
1
1
1
1
1
1
1
1
1
1
1
1
1
1
1
1
1
1
1
1
1
1
1
1
1
1
1
1
1
1
1
1
1
1
1
1
1
1
1
1
1
1
1
1
1
1
1
1
1
1
1
1
1
1
1
1
1
1
1
1
1
1
1
1
1
1
1
1
1
1
1
1
1
1
1
1
1
1
1
1
1
1
1
1
1
1
1
1
1
1
1
1
1
1
1
1
1
1
1
1
1
1
1
1
1
1
1
1
1
1
1
1
1
1
1
1
1
1
1
1
1
1
1
1
1
1
1
1
1
1
1
1
1
1
1
1
1
1
1
1
1
1
1
1
1
1
1
1
1
1
1
1
1
1
1
1
1
1
1
1
1
1
1
1
1
1
1
1
1
1
1
1
1
1
1
1
1
1
1
1
1
1
1
1
1
1
1
1
1
1
1
1
1
1
1
1
1
1
1
1
1
1
1
1
1
1
1
1
1
1
1
1
1
1
1
1
1
1
1
1
1
1
1
1
1
1
1
1
1
1
1
1
1
1
1
1
1
1
1
1
1
1
1
1
1
1
1
1
1
1
1
1
1
1
1
1
1
1
1
1
1
1
1
1
1
1
1
1
1
1
1
1
1
1
1
1
1
1
1
1
1
1
1
1
1
1
1
1
1
1
1
1
1
1
1
1
1
1
1
1
1
1
1
1
1
1
1
1
1
1
1
1
1
1
1
1
1
1
1
1
1
1
1
1
1
1
1
1
1
1
1
1
1
1
1
1
1
1
1
1
1
1
1
1
1
1
1
1
1
1
1
1
1
1
1
1
1
1
1
1
1
1
1
1
1
1
1
1
1
1
1
1
1
1
1
1
1
1
1
1
1
1
1
1
1
1
1
1
1
1
1
1
1
1
1
1
1
1
1
1
1
1
1
1
</DataArray>
<DataArray NumberOfComponents='1' type='Int32' Name='ParticleTetID' format='ascii'>
15643
20404
7832
6358
5859
6120
19902
8967
15643
7220
19868
8329
3385
11846
4953
24504
15827
4542
5293
99
36546
18830
30736
16998
25208
25065
12881
3246
14758
14961
25890
1676
581
2831
12031
15321
20820
693
2083
15852
20559
11844
13373
5791
25893
13282
18647
25368
27046
2093
11472
17227
15703
14759
2270
9219
12781
10850
24507
12372
1689
24144
13431
2507
5341
3059
2533
24506
11903
18726
8538
16809
639
11476
20160
7466
2102
22980
25370
1086
6121
31812
17256
18587
8201
15050
2183
15703
16534
8636
20177
36009
25891
17203
21321
2682
3384
6375
21073
24197
17203
5584
6707
3810
3698
22972
11873
36549
2006
15401
18731
2273
17516
9317
363
11659
1289
17356
7832
7428
10007
2523
34532
17469
2829
17529
6776
2093
4349
8923
9163
11414
29076
17468
7320
5324
7383
6255
3285
11414
24183
13514
15097
42830
34478
3281
1269
21101
5683
11606
11776
4755
42829
22327
1631
3588
3066
12253
10764
11108
22648
3588
22671
6689
18631
22648
4611
21232
11184
7764
7837
11766
34477
17227
13038
2830
10690
23841
22649
25067
31816
21073
15088
744
9714
11530
12288
8018
1069
8336
8722
895
2923
14088
16488
12108
39753
492
2582
8923
34480
17852
17531
3486
2650
39755
8372
8699
98
22142
25891
25371
15739
24507
23198
30467
1807
2101
21118
11517
8198
16034
6029
24183
25892
5785
16556
9449
11188
9291
16844
11792
14489
3968
11328
9903
19666
11120
9546
2379
18647
18005
9230
19661
34481
5288
12506
3282
9003
8837
3027
28194
4508
1631
24505
13447
7427
7844
6047
1659
1286
20162
18585
25062
26610
871
9339
19217
20676
3206
29080
2213
19558
7349
19559
1072
9230
8631
32375
17348
11476
26614
23107
34535
9221
12347
15852
20594
19578
6368
19641
3246
28393
2270
8259
12505
871
6062
17379
9146
5278
8541
6159
28195
2471
10543
21322
7983
9177
2910
10976
22174
7984
18583
872
3908
11606
21944
24507
1086
10472
22972
19058
13431
11877
25890
21404
19724
30465
886
5274
13160
18824
20478
21202
17940
7448
10615
13880
34480
15808
5287
11776
13442
683
9086
180
6362
13530
10408
16332
23108
7921
7334
2161
3916
7707
40094
19641
16231
25065
98
2381
5860
2462
13488
16268
8477
6058
11595
5288
3385
15702
18427
36549
2368
17249
9921
4108
27043
875
11776
2703
11777
2276
4510
456
25891
748
7583
11677
15370
14446
7349
8179
21201
23098
9827
2620
3799
30444
7624
8578
9825
13134
23187
19047
692
18185
39753
7293
16844
5782
9778
19558
18841
20798
6719
5279
19558
3020
17331
11001
31817
9293
10418
18570
3187
16532
25065
9320
18815
25892
6905
2276
3401
11631
19793
26610
9339
873
6692
25892
18730
12250
5324
3353
11901
24509
20177
13340
15845
19867
7338
2699
10561
15985
23515
18728
9399
8257
19651
16546
9501
15428
2762
19713
3246
13353
1966
15784
12621
9915
9617
4024
11903
19532
16231
3029
16261
71
14763
11144
22676
3290
30484
5288
2390
31
2073
13924
4545
13440
9662
9994
16531
6845
15305
6719
28395
</DataArray>
<DataArray NumberOfComponents='3' type='Float32' Name='vels' format='ascii'>
1.280565 0.070609 -0.000123
1.951650 0.907123 0.000254
0.007944 0.002326 -0.001253
1.809063 0.263839 -0.002050
2.448411 -0.427497 0.000245
0.386544 -0.058866 0.003147
1.707353 0.977409 0.000510
1.495850 0.284864 -0.003382
1.157705 0.067031 -0.000124
0.031314 0.005036 -0.003405
1.354608 -0.032412 0.001638
1.834193 -0.502154 -0.011685
2.415528 0.114968 0.003111
1.196486 -0.137629 0.000044
1.441267 0.077176 0.000049
2.645503 -0.722181 0.001081
1.794574 0.638432 0.000565
1.447536 -1.193577 0.000339
0.151254 0.025493 0.000087
1.243826 1.520415 -0.001031
3.190562 1.390529 -0.002503
1.073369 -0.246286 -0.001327
2.770317 -0.327176 -0.000292
1.675868 0.401134 -0.002251
2.535382 -0.795715 0.000102
3.483139 -0.721772 -0.003121
0.598061 0.003622 0.000712
1.963724 1.037881 0.000346
0.865362 0.176076 0.000106
1.511079 0.286698 -0.000758
3.987010 -0.790044 -0.000261
0.900631 -0.071709 -0.000758
1.594834 -0.029227 -0.001530
1.650398 -0.042403 -0.000570
0.099653 0.028907 0.000740
1.553238 -0.014551 0.000873
1.702446 1.072852 0.000092
1.185882 1.439987 -0.002576
1.122071 0.015975 0.001374
1.719984 0.482851 -0.000576
1.464102 -0.311798 -0.000420
1.283752 -0.110524 0.000390
1.446158 -0.142442 -0.000887
1.497652 -0.390428 0.000134
4.089855 -0.966952 0.002764
0.040667 -0.005129 0.000170
0.636426 -0.142982 -0.000558
3.037106 -0.432366 0.000940
2.157387 -1.169051 -0.000456
1.339883 -0.091549 -0.000635
2.132113 -0.965069 -0.000224
0.240373 0.030629 -0.000179
1.890535 1.191038 0.000804
1.652273 0.318763 0.000433
0.001920 -0.004405 0.006560
1.521396 -0.044247 -0.000150
1.406829 0.277141 -0.001680
-0.003498 0.000000 0.001990
2.741892 -0.750978 0.001087
2.149856 -0.055473 -0.002657
0.862061 -0.100949 -0.000292
1.816920 -1.008405 0.000866
1.559883 0.404060 -0.001076
1.656151 -0.155191 0.000313
1.335671 0.017217 0.000190
0.004979 0.001536 -0.000274
2.145111 -0.104117 -0.000380
2.738324 -0.884842 -0.001201
1.652471 0.044629 0.000077
1.092109 1.426889 0.001224
1.360943 -0.240077 -0.000897
0.972393 0.011465 -0.007650
1.992945 -0.071795 -0.000899
2.208641 -1.066928 0.000312
1.042381 0.071559 -0.000520
0.005077 -0.000001 0.000500
1.817384 -0.126488 -0.000073
1.755776 -0.102208 0.000570
3.145910 -0.336327 0.001739
2.270444 0.160345 -0.000960
0.004241 -0.000681 -0.001063
3.051591 0.010752 -0.000997
1.754495 -0.979155 0.000143
0.979801 1.437387 -0.001527
2.182277 -0.381640 0.000104
1.240485 -0.127897 0.000631
1.561343 0.286758 -0.003126
1.671370 1.108403 0.000485
1.242368 1.249915 -0.000433
1.539716 0.982732 0.001271
0.655892 0.043189 -0.000464
2.713793 -0.751548 0.001188
3.907384 -0.501921 -0.003545
1.314630 0.042657 -0.000640
2.125448 0.748427 -0.000576
1.124510 0.085029 0.000175
0.891889 0.033638 -0.001255
1.515442 0.218839 0.001233
1.636180 -0.046391 0.000270
1.596614 -0.041252 -0.003972
1.657325 0.037294 -0.000481
0.953303 0.276567 -0.004868
0.024468 0.004012 0.000358
-0.002309 -0.000007 0.001691
-0.002990 0.002002 -0.006360
1.805800 -0.098029 0.001536
0.020653 -0.000012 0.000514
3.044782 1.542390 -0.002230
-0.004411 -0.000526 -0.003283
1.376512 0.580544 -0.000133
1.091096 1.414069 -0.001883
0.001598 -0.001379 0.001450
1.110582 0.257888 -0.001111
1.972258 -0.043241 0.002477
1.464827 0.069261 0.000154
1.368537 0.037401 -0.000010
2.212875 0.042394 -0.001079
1.696851 -1.218192 -0.001213
0.063012 0.018512 -0.001353
1.143647 0.012554 0.002881
1.161167 -0.309724 0.001787
1.570972 -0.076897 0.001914
2.441610 -1.101730 0.001077
1.065707 1.395640 -0.001102
1.683625 -0.086635 0.000626
1.747370 0.398098 -0.000198
0.045823 -0.007409 -0.000143
1.302143 -0.094042 -0.000478
1.809673 0.230836 0.007310
1.434167 -0.204160 0.001338
1.413987 -0.256211 0.005563
0.141048 -0.000478 -0.000174
2.358170 -1.039801 -0.001404
1.088860 1.330798 -0.001450
1.730940 -0.032180 0.000758
1.721117 0.335849 -0.000521
1.565553 -0.041354 -0.000728
2.605013 0.030883 -0.000899
1.734100 0.267281 -0.003402
0.015578 -0.000022 0.000603
1.843962 -0.342139 0.000057
1.660735 0.041855 0.000208
1.501028 -0.034852 0.002152
3.250325 0.828885 -0.000296
2.791046 -0.476235 0.000831
1.627029 0.237713 0.000043
1.598729 -0.149363 -0.000174
1.287805 -0.011394 -0.000130
1.688834 0.074584 0.000172
2.046151 0.059694 0.002485
1.753212 0.358691 -0.001521
1.696640 -0.312491 0.000509
3.228697 0.866335 0.000122
1.851814 -0.245478 -0.000991
1.762838 -0.280239 0.000492
0.026118 0.007701 -0.000468
1.800791 -0.387327 -0.002317
0.439958 -0.001882 -0.007710
1.077313 0.052186 -0.000982
0.063226 0.000319 -0.001702
1.763782 -0.092508 0.001260
0.041702 0.012303 0.000110
1.627396 -1.137093 -0.000477
1.431902 0.244018 -0.000387
1.438412 -0.292493 0.000087
1.810386 -0.110240 0.001092
2.004395 -0.732584 0.000883
1.761675 -0.184273 -0.000171
1.791079 -0.261037 0.003091
1.832354 -0.482912 0.003399
0.179401 0.052372 -0.000500
1.573512 -0.271842 0.001384
2.987505 -0.537249 0.000047
0.841667 0.103720 0.000109
1.710626 -0.011078 0.001174
1.449680 -0.078713 0.001373
-0.005029 0.001993 0.000128
1.824084 -0.208830 0.000215
1.637923 -0.117495 0.001639
3.406955 -0.607941 -0.001848
2.680619 0.082655 0.000180
1.780406 -0.037662 0.000562
2.155358 -0.087871 0.001234
1.324969 -0.231715 -0.007093
1.084686 -0.305631 0.001667
2.111835 -1.305023 0.000210
1.547073 -1.192839 -0.000626
0.100238 0.029345 -0.000578
0.123945 -0.000181 -0.001127
0.007032 0.001103 -0.001219
1.313338 0.227086 0.002968
1.435120 0.041149 -0.004988
2.348963 1.187454 -0.000121
1.961078 -0.069851 0.001102
1.037397 0.240003 0.000990
1.717511 0.809030 0.000589
3.911964 0.994929 0.003168
1.982308 0.228326 0.000929
1.723723 0.359201 -0.000163
1.533074 -0.205830 0.001637
3.010238 -0.442806 0.001117
1.322679 0.110122 0.000232
0.518699 0.120653 -0.000290
1.796221 0.110475 0.001523
1.663296 -0.283684 -0.001279
4.283947 1.259927 0.008667
0.934849 -0.185565 -0.003029
2.164126 0.408549 -0.007000
1.173197 1.463113 -0.000341
0.218696 -0.001923 0.002583
3.803556 -0.522954 -0.003731
3.400826 -0.269215 0.001103
1.919196 -1.245644 0.000680
2.752541 -0.763090 0.001394
1.515272 -0.103772 -0.000198
2.571395 1.251475 -0.000005
1.682244 0.032450 -0.000056
1.348088 -0.078724 0.000153