<VTKFile type='UnstructuredGrid' version='1.0' byte_order='LittleEndian' header_type='UInt64'>
<UnstructuredGrid>
<Piece NumberOfCells='500' NumberOfPoints='500'>
<Points>
<DataArray NumberOfComponents='3' type='Float32' Name='Position' format='ascii'>
-356.074458 224.183119 -4.790536
-236.735884 171.317969 -21.433653
-479.999815 282.145679 -6.188208
-340.463665 251.683434 -10.078693
-184.539589 262.610016 -22.765270
-419.181771 140.356605 -2.365222
-206.615463 148.243542 -27.982511
-320.209710 290.447459 -7.229734
-356.130646 223.668994 -4.963721
-395.166210 241.952342 -4.618210
-252.174664 145.281540 -32.436933
-454.870347 105.374231 -29.965372
-428.568850 220.082503 -5.892253
-365.005544 157.196448 -3.913760
-256.063600 243.283611 -6.806866
-158.614956 345.711559 -16.280489
-224.974373 159.463668 -9.303298
-195.205356 351.339904 -14.991399
-400.669184 274.427303 -6.227373
-182.955272 60.349637 -21.374747
-159.311623 142.341315 -16.263690
-376.538549 99.020514 -4.138409
-173.494358 255.879403 -26.018427
-285.335588 341.114892 -15.640715
-162.936407 342.023345 -19.315899
-156.172062 256.535498 -20.894693
-430.403540 211.784354 -23.905872
-203.426700 162.044004 -14.511332
-383.147348 289.234393 -37.445547
-281.703054 327.592851 -7.076967
-151.647649 243.482965 -15.947462
-407.094981 167.391210 -2.560690
-255.058056 341.036668 -11.450985
-209.099706 238.786943 -11.480942
-477.332127 279.778657 -19.852558
-257.202434 226.180351 -9.020506
-198.210225 146.845919 -27.567849
-189.409098 67.297089 -20.161055
-269.655398 223.068249 -30.924174
-224.468494 67.426092 -28.205325
-290.152488 78.878329 -7.084760
-357.860202 162.948491 -3.904268
-384.988498 164.662001 -36.816557
-367.504848 88.076150 -32.500515
-153.469507 240.817672 -21.506158
-443.986423 217.918831 -37.383173
-386.473554 104.443261 -35.236882
-159.240136 251.654327 -14.397901
-167.873770 354.282562 -22.794862
-214.287898 235.915142 -9.886857
-185.909754 331.963206 -13.497446
-360.951506 230.776878 -6.327612
-217.513028 166.423654 -19.051225
-396.377613 288.062167 -37.336312
-501.954477 193.027008 -3.431235
-301.271449 171.330367 -7.952578
-365.227010 295.688764 -5.640463
-487.117088 182.826298 -32.929244
-157.873760 352.062136 -20.814121
-282.869202 65.696332 -14.359935
-402.268117 161.060318 -33.945706
-203.219596 324.437229 -13.518824
-301.382253 334.156515 -9.955963
-214.113695 230.985371 -10.718247
-228.473303 238.899451 -31.744352
-407.088977 235.524259 -37.458137
-353.295366 172.934630 -32.673215
-161.232112 346.412171 -19.724814
-248.605988 74.970945 -9.086088
-194.271918 62.095778 -15.304294
-314.237363 106.115935 -14.179120
-464.683558 183.401347 -35.361246
-258.648515 343.883470 -21.752025
-181.587042 329.278512 -25.073751
-377.906624 226.884346 -2.887943
-354.232559 221.405051 -32.773094
-209.947073 239.564790 -29.668678
-208.301646 248.940606 -28.389473
-166.981405 239.351355 -15.243834
-198.116086 229.220726 -15.904901
-398.784007 152.376374 -6.485052
-173.927605 233.380290 -16.202396
-201.192805 341.590400 -28.069640
-213.840752 76.952473 -20.792900
-194.197705 261.128560 -20.424899
-388.088510 159.286142 -3.509081
-307.185033 328.236639 -11.764623
-230.507035 168.828423 -18.617492
-196.119601 54.077625 -23.250516
-185.131069 144.773471 -27.176003
-397.144664 221.867454 -35.395634
-161.557922 345.829123 -20.560014
-158.726234 236.970806 -18.097358
-250.738600 145.000095 -32.139493
-237.704308 171.707333 -22.723473
-424.804215 225.101737 -2.523829
-432.040598 219.240463 -2.369119
-320.284550 253.667939 -9.951749
-253.600379 315.585536 -30.921228
-257.839626 84.560556 -9.531183
-241.021751 145.629682 -31.701966
-463.106729 289.216215 -12.459775
-345.595672 283.525295 -23.630841
-432.982147 177.008133 -26.659374
-411.406307 247.481735 -18.659887
-203.177676 251.177934 -12.957553
-395.220822 180.382109 -24.745572
-160.382662 138.440102 -20.168206
-400.869660 243.857153 -19.233072
-227.886214 55.704781 -21.151516
-196.063899 68.148099 -24.502692
-502.702971 192.191279 -10.502724
-368.328785 304.887126 -3.356769
-335.499648 179.562495 -23.522812
-253.727823 244.655769 -7.111113
-240.336261 249.642694 -31.939950
-199.247331 227.466495 -24.443148
-208.959692 330.394414 -13.355279
-487.715239 282.660186 -6.030522
-389.980151 210.788937 -27.623838
-419.779696 101.334348 -36.255619
-373.313157 168.140001 -6.658951
-168.873027 353.543277 -15.773982
-183.950339 50.243411 -20.068697
-207.602923 240.254889 -10.515044
-372.745575 300.910550 -33.952319
-319.849247 143.911534 -17.994577
-218.161839 236.646443 -10.115022
-300.024211 253.871352 -23.819799
-269.978551 81.260296 -32.368064
-386.731277 115.783995 -4.689456
-468.768658 213.179040 -5.025066
-175.559786 336.037587 -13.954681
-185.725631 52.490199 -16.274957
-303.719274 176.525025 -27.284497
-233.604847 156.464548 -30.878359
-312.890153 175.601749 -8.891003
-206.798984 236.013749 -19.924187
-295.120176 336.468405 -23.329613
-479.885717 211.082156 -3.512256
-228.928065 222.780033 -20.251345
-236.935067 249.129574 -30.784307
-284.449595 167.364572 -32.383771
-163.561327 155.659673 -17.499781
-163.882082 257.927655 -14.896194
-275.676554 338.089631 -11.066031
-264.986747 56.023455 -23.532738
-214.893122 256.343281 -11.841100
-242.602219 156.085974 -31.461517
-257.181809 161.047126 -32.701261
-240.650676 72.714292 -13.208218
-243.969760 325.174333 -8.498585
-159.685141 147.276699 -18.900747
-199.871559 264.819170 -17.274592
-254.760231 340.287858 -25.368190
-496.247116 273.910085 -13.313194
-279.827507 62.139457 -14.818059
-454.381021 180.641677 -32.724286
-418.096986 218.576357 -2.735230
-403.945201 218.347085 -5.177156
-202.132584 240.284195 -11.707445
-476.508057 279.193439 -13.307900
-221.850573 317.101978 -25.208014
-382.835286 272.145866 -21.906436
-381.952267 106.380785 -6.322735
-204.649918 240.756921 -11.971153
-239.652976 312.622670 -11.648313
-224.337718 223.114414 -24.305930
-289.359294 67.459507 -14.088764
-325.060596 73.024745 -13.938995
-490.125231 282.100653 -19.684696
-279.317022 94.396279 -29.092733
-161.757737 258.456431 -19.020712
-373.036304 232.033397 -6.470679
-277.758231 176.583547 -14.955835
-209.922783 232.847222 -12.042256
-521.117937 274.133925 -37.159414
-239.133513 221.890422 -20.394689
-198.226829 244.962443 -11.096796
-154.246027 255.733984 -22.070313
-179.144404 234.071417 -24.354906
-251.971208 319.091945 -32.084062
-276.116307 164.846445 -7.844191
-240.165999 340.187794 -13.616952
-387.244937 90.072292 -26.992788
-184.226439 346.962594 -25.811614
-195.412278 343.936920 -27.548464
-441.976387 295.975981 -17.939131
-393.802578 177.177965 -19.915422
-415.349736 261.045715 -3.185949
-344.671866 285.645320 -24.854339
-258.086572 168.110878 -29.461288
-169.343674 138.854941 -16.037937
-194.641274 240.945880 -27.517492
-414.234057 287.220520 -2.704526
-203.867143 144.424049 -27.865945
-155.807508 143.877335 -20.315578
-253.019443 58.617115 -15.435276
-238.908321 137.668312 -14.083425
-273.077405 82.459079 -32.844090
-164.243911 256.832832 -23.890122
-245.910857 255.998824 -27.933993
-367.497726 301.691453 -34.855914
-238.039162 146.737856 -30.566145
-284.108242 64.275103 -10.561752
-152.155075 142.989367 -21.032943
-390.823150 113.449486 -4.737487
-325.698596 294.827272 -12.699419
-181.326413 60.769459 -17.261325
-487.829860 183.684612 -2.354991
-159.702146 240.453311 -19.054323
-174.830736 240.301203 -19.987546
-222.496064 320.458070 -19.807111
-157.580977 352.112040 -20.523569
-265.403250 73.749917 -31.966984
-164.930705 141.316921 -23.842232
-266.050162 174.436235 -14.944224
-213.091561 241.443550 -29.616196
-213.656175 158.263552 -12.772276
-430.877119 102.044767 -34.579113
-188.721245 261.333008 -15.326153
-447.378904 182.185026 -30.062931
-415.534702 121.119229 -34.467486
-231.512983 220.653838 -22.744953
-152.376249 255.688514 -16.998011
-365.437448 88.103678 -19.783630
-245.807223 227.687116 -28.634943
-426.076469 218.035113 -36.125607
-279.367141 60.528311 -24.065201
-324.301922 177.540171 -8.412560
-249.467332 138.268961 -29.736526
-383.801777 235.130648 -3.291704
-352.728035 222.919184 -35.988281
-224.345788 135.142651 -18.296441
-402.884163 99.000339 -13.304319
-403.660244 305.020673 -6.910586
-256.378105 173.572045 -24.011044
-368.780271 222.057532 -33.150637
-331.723341 219.415071 -18.792548
-263.838902 334.853558 -8.532545
-382.082399 104.419314 -34.590929
-265.128742 232.046788 -7.512144
-283.185086 174.249014 -29.005524
-250.217325 170.379270 -10.981800
-164.186094 259.340675 -22.062954
-433.924958 212.145102 -29.739480
-239.169742 233.116184 -31.591688
-277.254505 340.287092 -14.415550
-337.729666 92.624225 -6.753892
-403.895318 151.811312 -35.344859
-226.404826 233.443280 -9.762223
-150.475333 242.090745 -17.236312
-205.214883 354.944133 -17.773266
-250.283279 343.648312 -21.752237
-160.704574 350.313072 -18.632017
-416.081461 176.807757 -4.588658
-336.951266 216.047002 -24.195551
-500.498651 281.192964 -32.097092
-413.850799 270.206258 -37.125184
-315.963984 228.580064 -6.773595
-202.690990 225.232379 -17.799788
-383.309911 225.818647 -3.377785
-192.587956 69.171159 -21.729501
-160.003796 250.017907 -15.464661
-175.076600 330.972912 -15.960859
-190.250215 65.675280 -16.431774
-410.609569 174.914857 -36.920115
-498.226662 188.031034 -23.576141
-252.884615 167.216598 -28.032816
-412.830691 247.882651 -3.718453
-179.065074 338.678249 -25.453842
-418.503141 137.152643 -36.075880
-179.316223 160.084140 -24.812178
-347.838418 176.014481 -12.703231
-187.684145 163.111805 -22.226652
-393.670126 177.118897 -26.608306
-279.148108 173.253396 -27.963720
-181.476241 136.152524 -22.771830
-162.441774 350.287945 -23.058872
-187.011343 249.454617 -26.941456
-181.589741 333.792124 -26.413246
-177.610914 333.317839 -25.117410
-269.935209 79.179782 -32.156750
-166.672674 353.520095 -23.040102
-288.049259 173.442806 -9.526794
-417.689339 141.841082 -34.303066
-229.572694 71.801772 -28.396881
-410.912606 299.981660 -4.214668
-254.253435 308.505832 -27.363357
-339.723038 246.561892 -32.546407
-248.921540 321.372371 -7.920243
-190.187159 157.015088 -13.854220
-146.917475 248.067665 -19.259441
-503.057937 194.209925 -6.207707
-491.147517 126.136843 -33.565524
-239.403621 234.850724 -31.957439
-181.252003 59.222333 -16.770424
-377.273737 150.390172 -32.653322
-283.848383 215.200961 -21.788789
-489.705580 210.951107 -4.568048
-434.421474 215.671625 -12.599216
-323.353906 103.603771 -24.486772
-295.111606 297.286007 -8.033432
-146.995895 250.307437 -17.732616
-281.125164 230.554761 -6.845310
-234.288418 152.343430 -31.878490
-232.349104 171.637334 -23.825056
-366.696057 310.511109 -20.001901
-414.893900 121.414466 -33.852448
-206.277543 344.299632 -28.050996
-225.801458 147.329147 -29.763001
-482.247531 211.448433 -36.626464
-366.298229 307.712759 -26.665423
-209.225798 76.111097 -18.716131
-184.152727 57.864870 -16.213955
-467.462128 213.811296 -4.117970
-252.894576 163.162440 -31.853140
-380.089508 166.721798 -3.697928
-157.438670 352.925063 -21.206169
-195.967636 233.324274 -13.621133
-236.118360 246.545475 -32.258207
-201.239371 255.551521 -11.726084
-258.424704 229.185053 -32.392305
-302.208347 333.149246 -9.849895
-437.350010 177.511418 -35.592804
-152.010488 243.142202 -16.502418
-378.466075 173.812126 -3.485824
-281.704835 70.171808 -32.588093
-161.861955 139.586190 -21.130334
-262.900046 168.110185 -12.386126
-451.913201 217.002283 -2.922501
-430.021054 177.356344 -5.196171
-300.656119 69.363286 -31.167154
-215.329059 69.256664 -27.346260
-407.950263 222.232193 -37.634522
-216.389421 66.669663 -27.369138
-354.163503 218.219579 -31.650068
-257.470390 233.955516 -32.996126
-353.891854 160.844525 -5.892386
-165.665813 256.571710 -23.670604
-215.936499 256.947380 -10.829055
-427.105064 217.856453 -32.781099
-232.965471 69.597862 -13.004001
-294.411674 333.818746 -27.847282
-419.624318 119.509045 -34.142250
-288.720085 173.372801 -27.427966
-429.925759 281.942249 -2.401128
-324.477758 247.341935 -19.663986
-291.887482 217.800559 -28.690483
-287.976592 220.691637 -8.732245
-204.126373 155.458741 -13.352643
-264.066757 77.385799 -31.703548
-501.397694 277.736009 -6.604308
-339.342355 179.095448 -17.523370
-345.935433 306.813755 -5.920073
-450.180787 218.278806 -26.539248
-325.300147 72.947668 -8.547001
-167.870742 352.442795 -18.528446
-248.033355 319.244817 -8.275441
-259.287751 327.154946 -31.870574
-158.259486 260.262686 -20.313745
-179.737533 58.792414 -18.145634
-271.761538 335.967618 -9.126736
-174.452853 260.459644 -25.858845
-472.040023 115.446694 -31.984394
-289.649198 62.888835 -14.520739
-470.761502 209.463561 -28.275367
-394.390328 238.260505 -36.089398
-354.934937 143.944361 -26.645468
-249.077618 150.809674 -7.600311
-438.209943 211.687047 -29.559358
-428.802890 217.830371 -5.338880
-221.623177 167.724833 -14.005830
-254.573393 318.081933 -32.873676
-163.556339 148.261317 -22.240151
-453.023119 210.109225 -22.510256
-213.308902 334.945613 -11.514465
-349.601949 98.177111 -6.623465
-272.832850 172.595534 -10.591688
-168.381286 355.242998 -17.541478
-188.539767 59.589569 -23.384724
-235.663921 72.285962 -10.946910
-333.604624 79.534244 -7.765009
-231.620797 74.554859 -12.681991
-502.217278 192.786127 -17.172145
-208.493578 352.084826 -25.212429
-221.271733 263.006553 -15.054121
-155.707610 238.256208 -18.210782
-220.289195 352.356657 -24.363787
-444.472251 102.625681 -11.337538
-229.924068 330.198962 -29.990154
-485.555033 211.700849 -37.812448
-219.637481 170.949627 -22.959249
-351.047618 179.994250 -10.548605
-266.726656 87.899969 -18.934071
-401.333620 225.332879 -34.330161
-270.895603 80.406877 -7.969268
-413.962048 304.873778 -35.362072
-333.750728 172.748702 -26.273893
-465.759907 179.053156 -5.727262
-169.253767 242.737706 -13.586574
-495.205609 120.868461 -26.479284
-324.016248 106.865220 -24.025487
-409.695881 303.114344 -35.709918
-192.957974 345.271816 -27.236235
-260.627630 76.330684 -8.435874
-265.018846 228.568417 -8.047721
-187.247171 67.878098 -16.626284
-229.629274 229.961967 -10.091842
-160.423889 151.503152 -20.820925
-373.307202 180.576062 -7.523200
-256.347550 140.780150 -31.139944
-365.839459 88.871305 -13.026146
-495.382771 280.842011 -13.108462
-182.842671 156.211282 -25.851284
-403.551285 101.818097 -33.265463
-266.122708 174.449329 -17.101950
-345.346885 286.630814 -11.583240
-429.804679 212.560533 -11.110456
-182.729068 155.948908 -25.828113
-299.210933 252.509744 -30.656592
-369.864288 98.381549 -35.671268
-272.182684 323.513589 -7.115294
-169.750421 235.904043 -24.974530
-325.861954 177.680289 -9.070463
-290.473491 218.376831 -29.826371
-204.114950 158.433734 -27.914010
-367.492932 227.227264 -5.957313
-195.966730 57.532825 -14.904901
-157.784288 254.229927 -22.135492
-364.828353 182.226407 -28.530770
-297.691629 66.634417 -10.442866
-151.244235 252.197023 -16.295488
-344.441535 143.815785 -23.884171
-502.176635 194.031526 -18.266752
-481.395715 218.937254 -36.195859
-253.744033 170.067692 -10.631121
-254.730114 171.996488 -24.564329
-172.910962 329.795547 -17.556774
-420.650153 174.082883 -35.384756
-178.700049 55.504845 -20.788341
-347.005719 288.105295 -31.997272
-153.479176 245.878493 -19.515421
-196.246555 67.955475 -24.836857
-475.210121 184.789468 -22.463669
-234.677498 157.058186 -31.181931
-248.449877 141.122069 -9.276301
-245.606418 78.186636 -9.253643
-159.334180 350.267566 -22.216294
-409.905901 225.775047 -36.972122
-402.416653 232.705503 -2.925626
-233.240009 68.778173 -11.490500
-247.514242 151.817340 -32.857183
-400.741445 183.700756 -27.484617
-448.267919 231.525121 -36.873735
-230.243412 237.891577 -31.811578
-363.448663 169.141144 -6.241587
-280.528646 172.199034 -18.702070
-191.765845 67.324442 -15.924561
-335.599724 174.824550 -7.290727
-470.796250 114.607727 -32.083589
-250.159012 318.792048 -31.580641
-241.706336 227.067523 -12.438708
-374.903638 218.592811 -35.751731
-449.667308 218.076418 -5.628723
-263.313732 62.688181 -14.520389
-287.591343 76.390480 -7.279178
-202.760069 160.821295 -14.396193
-388.962087 230.910496 -35.037627
-221.558073 139.965065 -11.445809
-390.548082 287.834660 -37.638583
-278.451847 311.502720 -6.900294
-410.765519 299.982151 -35.867011
-340.146758 75.366763 -8.346847
-289.875265 297.640606 -24.187672
-247.851880 75.905709 -9.307481
-376.554386 172.947215 -3.489406
-263.948020 320.526672 -32.676747
-219.322900 231.436515 -10.111853
-463.493417 212.989962 -19.246268
-425.380893 292.422913 -37.341396
-232.320220 161.330452 -9.003621
-404.831671 175.252309 -2.961405
-200.487211 329.663865 -27.471247
-270.000232 336.492281 -30.459142
-174.940498 258.426250 -25.509220
-440.294306 212.139773 -29.707030
-263.047807 337.430952 -30.267983
-428.359032 182.452084 -29.741204
-276.373979 219.676800 -9.626468
-185.158203 350.748338 -25.544463
-191.249251 354.579616 -22.458231
-295.964730 333.666583 -27.496357
-310.095778 68.447844 -29.883865
-365.887807 87.473070 -12.968911
-196.114860 54.716424 -15.370627
-365.689240 144.849041 -9.618056
-240.750591 79.500068 -9.471692
-348.251285 283.175680 -10.078561
-145.585027 246.978438 -20.246726
</DataArray>
</Points>
<PointData>
<DataArray NumberOfComponents='1' type='Int32' Name='ParticleType' format='ascii'>
1
1
1
1
1
1
1
1
1
1
1
1
1
1
1
1
1
1
1
1
1
1
1
1
1
1
1
1
1
1
1
1
1
1
1
1
1
1
1
1
1
1
1
1
1
1
1
1
1
1
1
1
1
1
1
1
1
1
1
1
1
1
1
1
1
1
1
1
1
1
1
1
1
1
1
1
1
1
1
1
1
1
1
1
1
1
1
1
1
1
1
1
1
1
1
1
1
1
1
1
1
1
1
1
1
1
1
1
1
1
1
1
1
1
1
1
1
1
1
1
1
1
1
1
1
1
1
1
1
1
1
1
1
1
1
1
1
1
1
1
1
1
1
1
1
1
1
1
1
1
1
1
1
1
1
1
1
1
1
1
1
1
1
1
1
1
1
1
1
1
1
1
1
1
1
1
1
1
1
1
1
1
1
1
1
1
1
1
1
1
1
1
1
1
1
1
1
1
1
1
1
1
1
1
1
1
1
1
1
1
1
1
1
1
1
1
1
1
1
1
1
1
1
1
1
1
1
1
1
1
1
1
1
1
1
1
1
1
1
1
1
1
1
1
1
1
1
1
1
1
1
1
1
1
1
1
1
1
1
1
1
1
1
1
1
1
1
1
1
1
1
1
1
1
1
1
1
1
1
1
1
1
1
1
1
1
1
1
1
1
1
1
1
1
1
1
1
1
1
1
1
1
1
1
1
1
1
1
1
1
1
1
1
1
1
1
1
1
1
1
1
1
1
1
1
1
1
1
1
1
1
1
1
1
1
1
1
1
1
1
1
1
1
1
1
1
1
1
1
1
1
1
1
1
1
1
1
1
1
1
1
1
1
1
1
1
1
1
1
1
1
1
1
1
1
1
1
1
1
1
1
1
1
1
1
1
1
1
1
1
1
1
1
1
1
1
1
1
1
1
1
1
1
1
1
1
1
1
1
1
1
1
1
1
1
1
1
1
1
1
1
1
1
1
1
1
1
1
1
1
1
1
1
1
1
1
1
1
1
1
1
1
1
1
1
1
1
1
1
1
1
1
1
1
1
1
1
1
1
1
1
1
1
1
1
1
1
1
1
1
1
1
1
1
1
1
1
1
1
1
1
1
1
1
1
1
1
1
1
1
1
1
1
1
1
1
1
1
1
1
</DataArray>
<DataArray NumberOfComponents='1' type='Int32' Name='ParticleID' format='ascii'>
0
1
2
3
4
5
6
7
8
9
10
11
12
13
14
15
16
17
18
19
20
21
22
23
24
25
26
27
28
29
30
31
32
33
34
35
36
37
38
39
40
41
42
43
44
45
46
47
48
49
50
51
52
53
54
55
56
57
58
59
60
61
62
63
64
65
66
67
68
69
70
71
72
73
74
75
76
77
78
79
80
81
82
83
84
85
86
87
88
89
90
91
92
93
94
95
96
97
98
99
100
101
102
103
104
105
106
107
108
109
110
111
112
113
114
115
116
117
118
119
120
121
122
123
124
125
126
127
128
129
130
131
132
133
134
135
136
137
138
139
140
141
142
143
144
145
146
147
148
149
150
151
152
153
154
155
156
157
158
159
160
161
162
163
164
165
166
167
168
169
170
171
172
173
174
175
176
177
178
179
180
181
182
183
184
185
186
187
188
189
190
191
192
193
194
195
196
197
198
199
200
201
202
203
204
205
206
207
208
209
210
211
212
213
214
215
216
217
218
219
220
221
222
223
224
225
226
227
228
229
230
231
232
233
234
235
236
237
238
239
240
241
242
243
244
245
246
247
248
249
250
251
252
253
254
255
256
257
258
259
260
261
262
263
264
265
266
267
268
269
270
271
272
273
274
275
276
277
278
279
280
281
282
283
284
285
286
287
288
289
290
291
292
293
294
295
296
297
298
299
300
301
302
303
304
305
306
307
308
309
310
311
312
313
314
315
316
317
318
319
320
321
322
323
324
325
326
327
328
329
330
331
332
333
334
335
336
337
338
339
340
341
342
343
344
345
346
347
348
349
350
351
352
353
354
355
356
357
358
359
360
361
362
363
364
365
366
367
368
369
370
371
372
373
374
375
376
377
378
379
380
381
382
383
384
385
386
387
388
389
390
391
392
393
394
395
396
397
398
399
400
401
402
403
404
405
406
407
408
409
410
411
412
413
414
415
416
417
418
419
420
421
422
423
424
425
426
427
428
429
430
431
432
433
434
435
436
437
438
439
440
441
442
443
444
445
446
447
448
449
450
451
452
453
454
455
456
457
458
459
460
461
462
463
464
465
466
467
468
469
470
471
472
473
474
475
476
477
478
479
480
481
482
483
484
485
486
487
488
489
490
491
492
493
494
495
496
497
498
499
</DataArray>
<DataArray NumberOfComponents='1' type='Int8' Name='IsActive' format='ascii'>
1
1
1
1
1
1
1
1
1
1
1
1
1
1
1
1
1
1
1
1
1
1
1
1
1
1
1
1
1
1
1
1
1
1
1
1
1
1
1
1
1
1
1
1
1
1
1
1
1
1
1
1
1
1
1
1
1
1
1
1
1
1
1
1
1
1
1
1
1
1
1
1
1
1
1
1
1
1
1
1
1
1
1
1
1
1
1
1
1
1
1
1
1
1
1
1
1
1
1
1
1
1
1
1
1
1
1
1
1
1
1
1
1
1
1
1
1
1
1
1
1
1
1
1
1
1
1
1
1
1
1
1
1
1
1
1
1
1
1
1
1
1
1
1
1
1
1
1
1
1
1
1
1
1
1
1
1
1
1
1
1
1
1
1
1
1
1
1
1
1
1
1
1
1
1
1
1
1
1
1
1
1
1
1
1
1
1
1
1
1
1
1
1
1
1
1
1
1
1
1
1
1
1
1
1
1
1
1
1
1
1
1
1
1
1
1
1
1
1
1
1
1
1
1
1
1
1
1
1
1
1
1
1
1
1
1
1
1
1
1
1
1
1
1
1
1
1
1
1
1
1
1
1
1
1
1
1
1
1
1
1
1
1
1
1
1
1
1
1
1
1
1
1
1
1
1
1
1
1
1
1
1
1
1
1
1
1
1
1
1
1
1
1
1
1
1
1
1
1
1
1
1
1
1
1
1
1
1
1
1
1
1
1
1
1
1
1
1
1
1
1
1
1
1
1
1
1
1
1
1
1
1
1
1
1
1
1
1
1
1
1
1
1
1
1
1
1
1
1
1
1
1
1
1
1
1
1
1
1
1
1
1
1
1
1
1
1
1
1
1
1
1
1
1
1
1
1
1
1
1
1
1
1
1
1
1
1
1
1
1
1
1
1
1
1
1
1
1
1
1
1
1
1
1
1
1
1
1
1
1
1
1
1
1
1
1
1
1
1
1
1
1
1
1
1
1
1
1
1
1
1
1
1
1
1
1
1
1
1
1
1
1
1
1
1
1
1
1
1
1
1
1
1
1
1
1
1
1
1
1
1
1
1
1
1
1
1
1
1
1
1
1
1
1
1
1
1
1
1
1
1
1
1
1
1
1
1
1
1
1
1
1
1
1
1
1
1
1
1
1
</DataArray>
<DataArray NumberOfComponents='1' type='Int32' Name='ParticleTetID' format='ascii'>
3384
9315
7904
7223
1953
18126
3324
8643
3384
1459
13333
4406
3908
1226
17229
5660
3261
222
17137
8091
18367
1729
5518
9764
5659
5373
3917
2528
22265
16869
1646
415
12010
2993
7909
21532
3324
9009
9500
11244
20649
8209
22299
7592
1647
3455
4083
17720
4869
2543
6198
16957
3265
1798
2270
9327
902
10850
5661
20132
21095
8952
9905
2543
3198
12473
13172
5659
15161
9006
8378
5757
9875
6203
22988
12883
2552
3632
294
2995
10370
296
228
11241
855
21960
9903
4273
4043
3342
11949
5661
1664
13333
7299
9956
3906
6323
15547
15899
18859
7835
6041
3808
3698
3622
7139
5805
2006
12951
9010
2273
16057
11873
13251
18625
2998
2328
9793
15438
1509
253
4866
2709
2993
16071
6758
3191
6437
17329
4303
5761
4002
2707
9336
15998
7239
2995
7965
9146
9423
13477
21415
1338
5516
9759
9695
8068
15998
21955
13900
12783
18367
10880
12016
7925
9600
11390
13266
11611
2993
7906
1865
5303
829
2993
12784
9423
20132
9996
9799
8582
5515
11342
7332
2542
10690
7479
3621
1251
280
15547
20199
2958
8328
1432
228
12031
7135
16616
6041
21955
5802
3000
22934
3324
20925
17215
8880
17329
5519
13261
11087
18859
9599
5949
15482
6629
2438
10836
1645
295
1861
5661
18842
5807
9366
3199
2615
5003
852
11390
6083
9425
1248
7586
14486
13283
9605
11145
8762
17118
12885
8774
2452
3585
7281
2371
11114
12675
845
18921
9356
14567
5519
3920
15655
9762
1479
5561
4287
1646
799
2963
5659
12240
11116
7934
17565
1443
2545
23779
9011
17719
4004
9008
429
19217
14574
16562
4007
16757
533
13450
2783
7138
9356
8903
4871
1956
4006
4006
17329
4871
9345
17979
13388
2845
8688
7213
15537
2778
727
2270
20193
15655
2438
6620
9533
14653
3910
6275
8661
728
21189
18860
9315
7983
6083
806
11028
15371
7984
9925
2438
5762
14576
22285
5661
3174
18625
850
21541
9905
3383
1646
16148
20137
5805
19534
11412
3800
9590
12936
11627
12936
12884
21541
8209
5519
8069
3920
13378
9914
13408
9354
1314
6326
7446
9525
2526
17330
15607
13453
181
11422
9993
4868
15539
12018
5373
2438
12677
10720
9571
9600
5774
2951
12340
13323
3919
3908
4272
15547
18369
11423
2326
4141
9365
1825
9011
13379
11505
13378
2276
802
8448
1646
9262
8231
5179
15371
9317
13163
15902
11049
17319
2861
11873
5744
17718
7571
6275
2861
228
15897
18921
8090
4289
18369
1065
13334
7583
7924
532
2462
9368
6035
3911
532
6440
1743
17517
298
11145
9534
2534
16958
4038
5519
32
9579
728
6059
2276
2429
14567
9279
4003
5361
2439
6044
1645
9010
10253
15998
13324
13899
5661
23056
21152
13379
18859
7142
13192
4296
253
9350
9008
11865
9571
15547
14476
2373
11414
18024
20649
2528
10673
8104
22767
12261
2861
11505
8667
15161
1062
15151
3191
5768
1726
4269
2594
8960
12686
10720
3451
12686
3812
7419
1432
1433
9914
7644
7583
4038
5081
13901
6035
729
</DataArray>
<DataArray NumberOfComponents='3' type='Float32' Name='vels' format='ascii'>
2.012521 0.102032 -0.003669
1.139519 -0.013016 0.003185
0.030433 0.008901 -0.001313
0.071420 0.011486 -0.002137
2.449302 0.294358 0.002806
0.222327 0.068581 0.015625
2.491668 -0.224413 -0.004312
2.140973 0.424377 0.003840
2.037887 0.101111 -0.003471
1.825184 0.186736 -0.019184
2.062942 -0.249699 0.000847
0.824058 -0.245019 -0.003151
0.314045 -0.005980 0.000384
1.668233 -0.173313 -0.002583
2.001356 0.185685 -0.000444
2.581092 0.475889 -0.000128
2.230545 -0.170433 -0.001755
2.621465 0.651055 -0.001397
0.245175 0.056226 0.002188
2.604374 -0.562652 0.000510
2.625381 -0.181650 0.000268
2.006321 -0.456037 -0.002410
2.399278 0.232527 0.000074
2.163886 0.594420 0.000006
2.769513 0.506442 -0.000037
2.630169 0.247134 -0.000156
0.347232 -0.002216 -0.003506
2.639892 -0.143137 0.000955
1.713618 0.365359 0.000197
2.037026 0.499360 0.000090
2.539130 0.139920 0.001159
2.288592 0.182868 0.004040
2.761884 0.692068 -0.000519
1.810308 0.118698 0.000719
0.143267 0.041311 -0.000569
3.003054 0.204675 -0.000460
2.476779 -0.225888 -0.003868
2.531033 -0.521067 0.001053
1.843019 0.043167 0.003008
2.278288 -0.470479 0.000160
1.931010 -0.466209 -0.000936
2.447578 -0.220771 0.000205
2.511663 -0.205958 -0.000047
0.020173 -0.005938 -0.000622
2.659524 0.154269 0.000480
0.846005 -0.005642 -0.003745
2.024808 -0.422253 -0.000389
2.512270 0.216323 -0.000485
2.797718 0.616091 -0.000107
2.611339 0.148652 0.004680
2.566057 0.522192 -0.000207
2.145865 0.199154 -0.000838
3.034695 -0.240573 -0.001059
1.230647 0.306640 -0.000766
0.007358 -0.020466 0.010223
1.923115 -0.061964 0.002062
2.008403 0.445808 -0.006912
-0.000257 0.000027 0.002232
2.763991 0.588021 -0.000104
2.600694 -0.667759 -0.003367
0.348156 -0.006658 0.002214
2.551590 0.514592 0.002553
2.041057 0.550205 -0.002403
2.614533 0.161694 0.004074
2.160290 0.157227 0.001084
1.307279 -0.349943 -0.004490
0.053178 0.000333 -0.000354
2.779692 0.525271 -0.000162
2.111045 -0.456566 -0.000592
2.520992 -0.550541 -0.000454
1.708713 -0.305418 0.002386
0.794800 -0.007788 0.004921
1.423147 0.400272 0.003056
2.360074 0.437207 0.000401
1.480899 0.101020 -0.006916
0.385406 0.000831 0.000406
2.343823 0.127975 0.004448
2.241653 0.211491 -0.001490
2.579186 0.145680 -0.000395
2.990306 0.205766 0.002454
0.011821 -0.001956 -0.001275
2.703677 0.144145 -0.002322
2.530333 0.590600 -0.002303
2.550408 -0.506583 -0.000592
2.699275 0.303152 -0.004726
1.660045 -0.161324 -0.005034
2.664762 0.693002 -0.003601
2.687011 -0.118857 -0.001458
2.420370 -0.592780 0.002686
2.425495 -0.224183 0.000716
2.141023 0.010851 0.008233
2.821976 0.585703 0.000114
2.564545 0.115339 0.001018
2.010361 -0.239590 0.000734
2.573389 -0.094336 -0.000679
2.068320 -0.203629 0.006767
0.819873 -0.058951 0.001530
0.254437 0.040687 -0.001177
2.246694 0.488475 0.000017
1.896046 -0.374430 -0.003715
2.121043 -0.228679 -0.000244
0.462977 0.135315 -0.001686
0.704122 0.118259 0.004551
0.000450 -0.000020 -0.000603
-0.005367 0.003814 -0.007085
2.305466 0.251954 0.000597
3.825572 -0.030267 0.002185
2.381132 -0.268437 -0.000847
-0.004044 -0.000460 -0.002563
2.632244 -0.655308 -0.000438
2.408152 -0.517686 0.000575
0.001353 -0.001172 0.001937
1.971122 0.481379 0.005159
1.589517 -0.017118 0.005721
1.986724 0.211299 0.000600
2.180566 0.242500 -0.000804
2.564167 0.130982 0.000696
2.780319 0.600820 -0.002134
0.848757 0.232932 0.001731
1.378141 -0.001265 -0.003156
1.817225 -0.645239 -0.005285
0.707494 -0.047629 -0.004243
2.721389 0.605170 -0.000024
2.570759 -0.605531 -0.003120
2.366885 0.157952 0.000069
2.347912 0.586122 0.004729
1.343580 -0.204291 0.006751
2.206975 0.099080 -0.002746
0.121409 0.019570 0.000207
2.048644 -0.428512 0.000430
1.605840 -0.310040 -0.009488
0.532227 0.002533 0.001662
2.607747 0.534974 0.000291
2.310275 -0.585435 -0.000951
2.656742 -0.085332 0.005482
2.267239 -0.159278 -0.001023
2.206013 -0.070201 0.000049
2.379145 0.084492 -0.003617
2.453943 0.666409 0.000675
0.054435 0.000142 -0.000890
2.569977 0.081684 -0.000721
1.765694 0.197493 0.000090
2.227843 -0.097273 0.001328
2.586600 -0.145167 0.000419
2.432707 0.257455 0.000182
2.228758 0.592347 -0.001211
2.112498 -0.573955 0.000947
2.398174 0.279969 -0.001944
2.221115 -0.156180 -0.000900
2.300041 -0.124031 0.000869
2.122846 -0.411096 -0.003372
2.238275 0.494122 0.000689
2.645830 -0.218215 0.000271
2.279509 0.301494 -0.001346
2.778348 0.702105 -0.000882
0.009667 0.002818 -0.000138
1.353624 -0.377760 -0.001025
0.236055 -0.000915 0.000602
1.053421 -0.084511 -0.002267
0.720881 -0.011736 0.004880
2.532812 0.190606 -0.002186
0.023993 0.006914 -0.001047
2.977823 0.614172 -0.000370
0.016138 0.002647 0.000061
1.072735 -0.223787 -0.014659
2.581296 0.196636 -0.003434
2.324576 0.464402 -0.001391
2.187073 0.055513 -0.000942
2.520347 -0.649417 -0.002670
2.710678 -0.704736 -0.003747
1.224324 0.347521 0.000687
1.683279 -0.311495 0.002224
2.332324 0.274857 -0.001130
1.784789 0.199224 -0.011575
2.285178 -0.058594 -0.000912
2.441432 0.115333 0.003211
-0.005473 0.003789 0.000143
2.557148 0.080786 0.000434
2.405698 0.212228 0.000111
2.629382 0.223535 -0.000056
2.705182 0.194240 -0.001138
2.178182 0.457891 -0.000039
2.222749 -0.131617 0.000060
2.746501 0.685094 0.000332
0.277367 -0.080778 -0.009802
2.718701 0.635709 -0.003081
2.554418 0.598915 -0.002007
0.003160 0.000925 0.000772
4.741076 0.028755 0.000133
0.304175 0.413738 0.036412
0.413699 0.068958 0.002827
2.049411 -0.138991 0.000453
2.523212 -0.235783 0.000048
2.566870 0.182002 0.004196
1.200563 0.441373 0.000385
2.435286 -0.240874 -0.004897
2.542519 -0.123805 0.000830
2.999246 -0.712791 -0.000376
2.417048 -0.304722 -0.005145
1.849930 -0.391448 0.000474
2.590957 0.248000 0.000041
2.029350 0.182941 -0.001166
0.696952 0.153940 -0.000161
1.848731 -0.193298 -0.000328
2.318612 -0.605968 -0.003522
2.464274 -0.151638 0.000725
1.330973 -0.277071 -0.005469
0.057661 0.009400 -0.000474
2.380471 -0.507586 0.000024
0.459263 -0.029551 -0.003625
2.621385 0.139133 0.001788