<VTKFile type='UnstructuredGrid' version='1.0' byte_order='LittleEndian' header_type='UInt64'>
<UnstructuredGrid>
<Piece NumberOfCells='500' NumberOfPoints='500'>
<Points>
<DataArray NumberOfComponents='3' type='Float32' Name='Position' format='ascii'>
281.049094 213.994185 -4.973557
1029.059357 188.209033 -16.808274
-309.137484 331.334307 -5.972697
32.451240 265.889123 -10.451152
1029.278797 232.304881 -20.074967
-254.263679 129.027971 -2.138504
1029.253611 152.748402 -21.930599
514.785934 249.166416 -5.681975
244.668332 205.165892 -5.130695
-187.223954 271.851362 -5.032253
792.118976 99.285095 -29.439023
-30.891634 16.513310 -29.701297
-236.530783 221.931026 -6.060048
5.296529 178.637801 -3.981948
514.051824 199.973550 -5.057833
516.306114 320.404224 -15.384093
641.501076 168.333831 -6.700459
728.394597 342.409103 -12.264252
-328.581693 286.887876 -6.585515
1029.193912 138.980634 -19.474711
706.935456 136.163867 -13.175497
-1.543410 109.620649 -4.464689
1029.076102 228.539705 -26.569211
268.975193 359.755460 -14.792348
935.500815 267.032231 -17.320775
1028.990499 208.533237 -16.447437
-41.108756 211.718083 -23.491776
996.787325 177.810736 -9.034618
-28.371335 309.192526 -37.518770
278.246277 331.408926 -7.148847
568.064972 205.947820 -12.725114
-36.123011 171.220546 -2.626267
506.909295 361.286774 -8.662808
717.521542 220.660171 -9.681604
199.120912 217.726586 -17.717321
578.213679 187.162502 -7.972900
1029.074164 155.183680 -27.112406
1029.321351 153.281068 -16.377951
335.583833 92.229743 -33.011908
1028.982668 142.206514 -26.628187
475.720212 25.486844 -6.167444
200.905182 179.305479 -4.055440
-11.990109 177.741540 -36.991427
333.081046 27.683533 -32.473337
589.159837 214.594908 -17.689533
-310.355286 217.690629 -37.688960
-15.538885 102.689295 -35.187085
651.107635 217.538275 -9.141382
528.886350 341.087229 -22.605553
577.582382 189.979525 -7.151071
838.386842 297.941953 -10.636284
139.699159 200.045752 -6.609594
1029.044092 190.888146 -17.070591
-0.084327 298.519355 -37.291186
-491.752108 186.593618 -1.920789
667.225494 163.595258 -8.173827
84.511620 262.416610 -5.538614
-429.672760 182.846018 -31.886731
937.724516 269.417402 -16.965242
511.795942 5.597159 -11.368218
-26.809682 158.270703 -34.069852
846.886546 296.678692 -10.220931
256.691271 342.809405 -9.578322
633.564750 182.238544 -10.799052
717.303705 224.962478 -28.670576
-44.581667 267.063777 -37.409204
492.081320 92.175105 -36.643484
983.643018 268.375308 -19.542849
804.588308 84.159331 -7.744543
1029.030335 140.847806 -10.327024
773.670491 90.025414 -10.918787
-361.079967 183.646610 -35.006930
422.743582 386.163063 -3.664093
1029.370072 249.889205 -17.917543
26.282079 239.825055 -3.026908
454.951137 232.356017 -21.584969
635.135666 217.524211 -28.650129
1029.088630 226.583231 -26.791639
569.851936 197.731863 -9.015687
619.549886 181.801684 -13.386243
-49.731132 121.519628 -6.981810
748.845320 183.458626 -13.605924
750.539349 313.536214 -21.703215
1029.275264 140.263570 -17.033113
1029.110714 228.986199 -22.802082
6.701165 179.834162 -3.655300
398.890567 385.914013 -3.673483
1029.150350 191.275146 -16.086105
1029.304192 140.303527 -20.675616
1029.296586 152.742705 -21.728450
-2.358819 235.028599 -35.345211
962.135688 263.410324 -16.919059
738.420070 180.597931 -14.480903
827.952424 106.673008 -29.349579
1029.213633 188.409014 -16.858498
-41.904702 233.912729 -2.628624
-101.166802 225.724010 -2.487228
526.756114 257.467422 -6.151352
673.846473 326.104708 -23.427697
771.710279 74.092832 -6.842816
859.067091 111.682516 -29.677030
-177.749210 370.951103 -12.114747
487.135162 253.097331 -20.936668
-432.310168 176.914076 -26.667662
-390.833724 245.643494 -20.001663
1029.244989 230.300666 -9.687840
75.524647 215.160826 -24.127071
1029.318341 165.992030 -17.959244
-360.116460 249.698960 -19.792149
1028.977543 140.299234 -17.001177
1029.189046 140.141349 -19.420439
-502.116885 192.289730 -9.917283
23.282013 307.878097 -3.429280
736.728965 173.379311 -20.144897
666.716318 233.987803 -7.767538
816.466633 243.960614 -28.701265
314.221624 173.423187 -27.101925
684.955942 328.297185 -10.447879
-294.683062 337.958120 -5.432780
444.834431 71.170429 -18.251269
-79.096525 23.625704 -35.929426
526.477306 132.809782 -4.961869
634.625647 351.942824 -14.985240
1029.386622 140.349597 -17.517165
601.248356 215.336158 -8.836728
-14.753364 320.992444 -33.826739
377.639320 41.467018 -2.348081
576.419575 212.513204 -6.935660
1029.257480 229.715106 -21.899225
782.387788 78.493029 -28.354727
-148.492967 72.017148 -4.792635
-293.051833 213.473476 -5.155940
859.893876 293.062803 -10.308575
1029.115912 138.104862 -11.754595
790.557812 172.872323 -23.825020
910.662014 160.615675 -27.910204
591.512295 165.746172 -8.215424
696.401254 220.454971 -17.485218
365.796765 380.395469 -21.990176
-296.806687 211.759847 -3.589621
637.603523 180.344601 -20.143731
935.299258 242.175757 -27.286442
492.720652 91.348741 -36.525104
1029.134359 189.002731 -8.993922
1028.982673 228.031097 -11.093356
322.828080 368.709332 -10.533379
473.697188 5.713509 -19.877965
1029.064718 230.128527 -9.890916
882.126792 163.632454 -29.146979
381.472231 52.266270 -10.001146
998.432549 131.334353 -11.199730
507.423600 322.901690 -6.117004
1029.072949 189.720784 -13.672791
1029.126679 229.823613 -11.368067
637.156844 366.200348 -22.294924
-197.859215 357.466134 -13.164821
602.246975 39.991240 -10.975619
-253.125385 180.731590 -32.090271
-55.908392 221.536081 -2.963355
-109.530386 225.721651 -5.595635
626.705805 220.808052 -12.460078
-220.349211 352.063122 -13.285233
872.092213 288.913886 -18.634010
50.776553 263.619393 -21.610361
132.042138 174.811664 -6.776814
663.393701 217.317542 -13.614351
732.311834 318.025492 -10.123114
315.732041 182.273857 -25.732704
485.964818 3.677589 -13.082305
317.409838 18.255939 -14.467459
-234.598605 355.832249 -19.032930
827.011056 89.100693 -27.729142
1029.312762 229.305865 -15.668280
501.517909 215.120065 -4.566802
790.951021 175.199206 -12.992159
678.692355 178.543554 -12.322071
-521.920153 274.708881 -37.110357
663.417025 171.112729 -19.570558
659.554837 186.283586 -9.636593
1029.259166 229.986926 -17.220021
657.039848 180.614864 -27.293167
520.980341 328.722618 -25.359867
639.253461 163.637360 -8.038693
619.605612 361.952827 -10.069083
90.102895 179.136117 -26.764265
846.578832 315.386199 -23.659910
790.904776 306.244954 -23.142658
171.346483 219.070834 -14.905985
-278.540687 176.091175 -19.927795
-275.644584 291.883994 -3.353927
264.658716 245.153181 -24.472031
919.836176 176.631373 -24.070927
744.870568 139.885958 -12.345654
589.617884 214.433729 -28.545654
-19.432850 318.663310 -2.769072
1029.246652 152.097065 -21.274371
1029.238727 166.185289 -18.220476
514.202701 5.856023 -12.250811
1015.311180 163.906304 -11.694947
785.229100 79.768360 -28.222383
1028.978325 226.681346 -19.098767
1029.070636 229.001683 -26.946571
-0.630465 313.190474 -34.890107
768.071744 94.262229 -26.427757
456.909148 4.713219 -6.465663
1029.134247 165.425647 -17.916420
-39.407904 100.951871 -4.849358
562.643735 334.445261 -10.213465
1029.191202 138.906774 -12.100933
-294.044697 181.894591 -2.377177
617.897533 214.766694 -15.919961
1028.987540 207.207378 -15.083185
747.059102 310.797697 -18.627360
988.290414 269.583370 -18.663469
798.997225 82.350986 -26.927264
1029.125480 163.915666 -20.865933
862.678255 177.744821 -11.954108
581.980270 214.073757 -28.516153
728.882038 174.881503 -11.114536
-95.614604 17.830641 -34.341569
1029.130325 227.908705 -11.363294
-151.255827 179.371401 -29.465060
-140.566206 64.364690 -34.266205
955.697658 178.009437 -20.921547
1029.089074 228.582486 -11.134421
680.978793 50.590299 -11.859935
655.859093 179.749527 -25.976660
13.473434 225.043730 -35.973301
471.712706 5.692188 -19.883793
569.732924 162.664956 -7.978710
836.427209 107.345961 -28.063194
47.475475 248.013768 -3.310790
22.854816 232.354061 -36.065880
1029.130825 162.909080 -15.085360
538.195022 35.501286 -9.495538
100.236806 289.687233 -7.059515
945.810743 177.890367 -20.510271
47.149508 229.645933 -33.069603
373.059400 240.423515 -12.994649
463.956156 381.846806 -4.630138
-10.808471 110.899966 -34.792032
567.299354 189.398851 -7.678057
842.095922 173.782885 -26.389904
795.435661 173.162120 -9.025633
1029.088616 227.990706 -18.525192
-70.014346 211.882224 -29.203657
569.241618 197.463704 -29.374028
331.385250 370.376859 -13.214113
483.381632 27.513019 -6.622383
-68.322647 111.328401 -34.370674
642.831571 220.119113 -8.150203
772.960647 219.036588 -16.605634
687.394355 355.916299 -15.045758
619.710629 367.033043 -17.520812
990.380840 267.532768 -17.043976
-36.075602 196.373394 -4.900260
311.426774 143.688059 -25.039306
-237.503578 357.208432 -31.036091
-190.164096 313.491424 -37.015284
501.556575 202.217861 -6.428206
318.422318 188.515462 -17.867081
42.911714 236.738976 -3.459824
1028.992364 140.724015 -18.226469
683.047268 188.437290 -14.338192
892.494181 286.866404 -11.936251
1028.982169 140.578835 -8.523235
-43.678005 188.794443 -36.826517
-498.824209 188.755439 -24.646239
1006.406099 178.996493 -26.572850
-222.390193 270.514388 -4.125910
889.617318 287.372431 -21.720316
-405.682379 126.132260 -35.799998
1029.055936 181.494904 -18.997324
-124.176565 173.006744 -12.725762
1029.168282 189.604127 -16.148881
-248.267888 175.346336 -26.293684
800.058627 175.387590 -25.857037
744.417059 141.851397 -19.719433
1029.062033 251.332961 -17.754174
642.058438 220.577020 -19.030904
881.383430 289.355695 -21.584360
1029.209896 251.530546 -18.765869
820.992460 86.751869 -27.134115
671.580565 344.311113 -21.874090
604.559550 167.955312 -7.634037
-119.350436 109.465725 -34.135668
856.244387 96.804030 -33.335681
-18.612404 344.913453 -4.320216
1029.052570 231.238678 -23.593649
-65.825494 281.879933 -31.722378
516.183213 311.038096 -6.279444
1029.019086 186.784368 -8.920433
1029.062089 229.606706 -11.842059
-492.472651 185.841187 -3.122050
-90.999270 30.178155 -33.860761
592.329128 184.777665 -29.414537
1029.055737 139.105929 -11.640209
-168.558029 118.350934 -31.704600
660.698263 171.617351 -20.288240
-332.249572 211.385752 -4.599850
-208.070442 216.976858 -12.651462
1028.996143 151.715862 -17.273462
603.014656 261.426425 -6.944574
411.591621 245.039275 -3.410562
541.328126 196.776624 -7.483490
1029.256785 153.702561 -22.613375
920.410167 177.810912 -19.557455
245.968273 312.869465 -20.313731
-113.412323 63.653203 -33.396197
547.043083 335.367961 -24.027761
950.102020 140.369666 -27.610852
-355.104946 211.608531 -36.771576
-149.936296 360.432706 -26.727337
1029.273908 151.732683 -17.452964
1029.014351 139.407205 -11.818104
-275.768277 214.580123 -4.286090
598.109667 159.356848 -32.182161
35.993763 203.367086 -3.777781
930.601583 268.538443 -21.172247
628.627489 186.732432 -11.373047
842.745921 241.145055 -28.296041
1029.080799 230.197874 -9.454699
568.271961 205.655112 -30.295967
276.823326 353.973750 -9.500079
-9.784960 208.905165 -35.416939
1029.008500 206.564596 -15.792315
57.157627 213.754797 -3.445873
619.922691 43.370532 -27.739630
859.643974 155.826482 -18.505235
684.020291 172.346833 -11.174422
-123.172612 221.307058 -2.982824
-202.482608 175.045771 -5.441182
441.246600 3.446105 -15.449297
1029.220334 140.786220 -22.054353
-11.765493 232.159827 -37.703757
1029.175277 141.288491 -25.554240
313.804953 173.701756 -33.200895
578.575412 267.043350 -34.761075
190.138429 179.085365 -6.158923
1029.228811 229.056026 -21.423484
1021.796901 231.332533 -10.075585
-198.566376 219.598004 -32.275642
1001.645357 136.290001 -10.307707
334.061305 348.953651 -28.116909
-42.524316 81.067023 -34.152266
833.208484 176.267866 -22.437017
-55.255215 348.535688 -2.545845
8.817887 268.359355 -19.412964
313.319530 136.729927 -31.223607
440.575813 73.261238 -5.625600
1001.566240 180.147293 -9.323921
825.474537 88.498132 -27.328551
-379.656601 313.525862 -6.182864
575.280379 168.264642 -15.585280
77.842225 280.964150 -6.120389
-311.850571 218.153867 -26.353843
287.165345 134.161454 -5.466816
905.881675 298.198125 -19.645734
603.657192 339.283721 -8.432968
509.236387 366.075069 -26.120904
1029.137774 227.226450 -10.712844
1029.144133 141.824809 -12.094427
349.218039 369.801010 -8.544957
1029.072346 230.843770 -24.585391
-67.924593 18.188049 -31.750048
442.247217 2.762195 -6.325689
-119.315333 211.972973 -27.836459
60.561624 250.712341 -35.802245
-243.502635 126.149449 -26.231989
598.816353 117.747835 -5.876401
-84.516712 214.203216 -29.211359
-226.956410 219.779455 -5.654231
1029.220458 185.847851 -11.251454
512.943627 320.767282 -23.566244
1029.129728 164.701498 -20.667179
-59.345254 206.938138 -22.218697
387.734907 289.163858 -6.609362
476.194568 44.103464 -6.758180
725.341362 170.620688 -9.265892
953.171689 279.036961 -16.851138
1029.292222 139.341657 -20.537809
944.938307 121.594469 -8.801838
305.538786 28.685821 -7.533541
969.807122 128.428769 -9.041935
-501.634860 193.582500 -17.187492
422.364659 386.234165 -5.736371
1029.087163 227.049554 -11.271518
592.142492 187.523237 -19.361233
556.711472 385.686648 -18.240274
-168.584901 23.751969 -11.358494
508.963539 322.116137 -25.328590
-412.001780 211.975769 -37.988686
1029.146218 191.360374 -20.366622
497.013929 118.115488 -9.136147
1028.984297 152.167014 -15.410153
47.958070 234.840506 -34.298476
680.272217 50.024200 -6.808626
-59.825667 385.219184 -34.734653
773.840830 174.139003 -24.117466
-269.081051 178.268578 -5.481843
591.143633 214.858605 -9.273718
-349.307974 77.353915 -26.494582
202.459155 171.884540 -23.816604
-37.812871 372.504463 -36.014495
823.565560 300.679779 -22.829286
726.777391 63.295425 -7.737748
313.487647 137.639207 -5.031493
1029.189180 152.203793 -9.786901
639.951277 182.286043 -10.669306
782.970603 145.340908 -19.099736
495.133024 118.635101 -6.833902
836.193076 107.422245 -28.149981
553.789886 33.189934 -6.881817
-277.341649 343.770400 -12.516834
1028.992859 189.529076 -21.214293
381.108611 17.400202 -7.525244
934.318090 176.338426 -13.542554
108.760307 225.434180 -11.521280
-143.627748 215.170155 -11.252545
1029.067094 190.358882 -21.601804
757.063400 246.702508 -26.550128
-3.361116 112.706659 -35.718870
362.992398 331.510923 -6.968249
766.194093 184.353333 -20.269112
536.141192 165.437694 -7.219962
665.699344 170.581562 -23.574355
1029.118563 166.532241 -28.691753
265.673986 222.418759 -5.851620
1029.114841 139.297521 -11.567960
393.863024 252.966940 -4.212802
545.041180 166.851861 -23.384731
345.446240 11.744068 -7.951545
936.934607 218.173839 -15.274758
290.943462 164.638007 -23.269980
-501.823521 193.773564 -17.595786
-23.424242 221.888379 -36.148102
825.962934 174.473666 -9.788194
1029.163817 184.148452 -21.974278
865.345506 289.038019 -10.321762
-45.648859 186.749645 -35.427376
1029.328978 136.843542 -18.881703
52.062183 268.698437 -31.612633
1029.222021 229.310936 -11.098716
1029.172426 140.413768 -21.018412
-159.694327 181.811890 -22.020365
870.642008 159.635199 -29.051944
711.535816 132.056967 -7.463552
633.932286 49.469718 -6.580465
1029.236015 251.014534 -17.909152
-0.059611 239.314080 -37.028679
26.844436 249.348554 -3.142815
991.991368 132.803751 -10.383372
841.107803 110.411175 -28.164376
361.663179 235.919617 -26.550149
-3.675532 241.126614 -36.845852
685.729149 223.415706 -28.774362
128.469705 190.758677 -6.308135
1002.885587 183.633147 -15.809499
1029.022018 152.098673 -9.721617
553.222901 157.023574 -8.116545
-219.290867 42.221443 -31.835081
642.403163 335.022899 -23.958543
572.695098 177.702665 -12.211168
31.337220 226.899351 -35.462619
-271.381106 218.167148 -6.061135
821.889878 84.726491 -10.552459
488.458396 28.213132 -6.224033
1028.472420 187.594667 -9.339544
77.146983 233.072257 -35.035876
891.794856 158.863578 -10.242743
-28.697222 309.389822 -37.647253
511.838372 301.816246 -6.184647
-33.538290 363.937076 -35.907308
124.086347 161.487503 -7.247199
400.884835 273.474580 -5.355285
844.818868 90.884182 -8.306106
43.141856 212.107305 -3.814578
509.462559 311.626459 -23.974019
602.588803 215.508060 -8.441162
-232.932582 213.480036 -19.368007
-33.983539 354.549424 -37.276099
786.447971 172.320445 -8.796675
-30.924617 193.423620 -3.171415
797.418524 298.002301 -22.996501
339.576643 368.984380 -30.503666
1029.182799 226.565878 -26.855878
-100.579066 215.059715 -29.374470
363.319599 375.604484 -29.958808
-33.757961 207.641493 -28.955128
545.605148 167.777620 -7.027598
757.919711 336.830498 -24.713183
787.672765 330.432592 -21.963096
264.600106 351.238481 -27.567926
89.944231 177.864467 -28.976588
299.548032 79.834310 -9.871085
1029.072314 141.391280 -11.738849
-63.660846 110.112443 -10.139548
659.730999 52.332541 -6.061037
80.851985 250.759668 -10.530331
652.481910 216.846172 -17.328330
</DataArray>
</Points>
<PointData>
<DataArray NumberOfComponents='1' type='Int32' Name='ParticleType' format='ascii'>
1
1
1
1
1
1
1
1
1
1
1
1
1
1
1
1
1
1
1
1
1
1
1
1
1
1
1
1
1
1
1
1
1
1
1
1
1
1
1
1
1
1
1
1
1
1
1
1
1
1
1
1
1
1
1
1
1
1
1
1
1
1
1
1
1
1
1
1
1
1
1
1
1
1
1
1
1
1
1
1
1
1
1
1
1
1
1
1
1
1
1
1
1
1
1
1
1
1
1
1
1
1
1
1
1
1
1
1
1
1
1
1
1
1
1
1
1
1
1
1
1
1
1
1
1
1
1
1
1
1
1
1
1
1
1
1
1
1
1
1
1
1
1
1
1
1
1
1
1
1
1
1
1
1
1
1
1
1
1
1
1
1
1
1
1
1
1
1
1
1
1
1
1
1
1
1
1
1
1
1
1
1
1
1
1
1
1
1
1
1
1
1
1
1
1
1
1
1
1
1
1
1
1
1
1
1
1
1
1
1
1
1
1
1
1
1
1
1
1
1
1
1
1
1
1
1
1
1
1
1
1
1
1
1
1
1
1
1
1
1
1
1
1
1
1
1
1
1
1
1
1
1
1
1
1
1
1
1
1
1
1
1
1
1
1
1
1
1
1
1
1
1
1
1
1
1
1
1
1
1
1
1
1
1
1
1
1
1
1
1
1
1
1
1
1
1
1
1
1
1
1
1
1
1
1
1
1
1
1
1
1
1
1
1
1
1
1
1
1
1
1
1
1
1
1
1
1
1
1
1
1
1
1
1
1
1
1
1
1
1
1
1
1
1
1
1
1
1
1
1
1
1
1
1
1
1
1
1
1
1
1
1
1
1
1
1
1
1
1
1
1
1
1
1
1
1
1
1
1
1
1
1
1
1
1
1
1
1
1
1
1
1
1
1
1
1
1
1
1
1
1
1
1
1
1
1
1
1
1
1
1
1
1
1
1
1
1
1
1
1
1
1
1
1
1
1
1
1
1
1
1
1
1
1
1
1
1
1
1
1
1
1
1
1
1
1
1
1
1
1
1
1
1
1
1
1
1
1
1
1
1
1
1
1
1
1
1
1
1
1
1
1
1
1
1
1
1
1
1
1
1
1
1
1
1
1
1
1
1
1
1
1
1
1
1
1
1
1
1
1
</DataArray>
<DataArray NumberOfComponents='1' type='Int32' Name='ParticleID' format='ascii'>
0
1
2
3
4
5
6
7
8
9
10
11
12
13
14
15
16
17
18
19
20
21
22
23
24
25
26
27
28
29
30
31
32
33
34
35
36
37
38
39
40
41
42
43
44
45
46
47
48
49
50
51
52
53
54
55
56
57
58
59
60
61
62
63
64
65
66
67
68
69
70
71
72
73
74
75
76
77
78
79
80
81
82
83
84
85
86
87
88
89
90
91
92
93
94
95
96
97
98
99
100
101
102
103
104
105
106
107
108
109
110
111
112
113
114
115
116
117
118
119
120
121
122
123
124
125
126
127
128
129
130
131
132
133
134
135
136
137
138
139
140
141
142
143
144
145
146
147
148
149
150
151
152
153
154
155
156
157
158
159
160
161
162
163
164
165
166
167
168
169
170
171
172
173
174
175
176
177
178
179
180
181
182
183
184
185
186
187
188
189
190
191
192
193
194
195
196
197
198
199
200
201
202
203
204
205
206
207
208
209
210
211
212
213
214
215
216
217
218
219
220
221
222
223
224
225
226
227
228
229
230
231
232
233
234
235
236
237
238
239
240
241
242
243
244
245
246
247
248
249
250
251
252
253
254
255
256
257
258
259
260
261
262
263
264
265
266
267
268
269
270
271
272
273
274
275
276
277
278
279
280
281
282
283
284
285
286
287
288
289
290
291
292
293
294
295
296
297
298
299
300
301
302
303
304
305
306
307
308
309
310
311
312
313
314
315
316
317
318
319
320
321
322
323
324
325
326
327
328
329
330
331
332
333
334
335
336
337
338
339
340
341
342
343
344
345
346
347
348
349
350
351
352
353
354
355
356
357
358
359
360
361
362
363
364
365
366
367
368
369
370
371
372
373
374
375
376
377
378
379
380
381
382
383
384
385
386
387
388
389
390
391
392
393
394
395
396
397
398
399
400
401
402
403
404
405
406
407
408
409
410
411
412
413
414
415
416
417
418
419
420
421
422
423
424
425
426
427
428
429
430
431
432
433
434
435
436
437
438
439
440
441
442
443
444
445
446
447
448
449
450
451
452
453
454
455
456
457
458
459
460
461
462
463
464
465
466
467
468
469
470
471
472
473
474
475
476
477
478
479
480
481
482
483
484
485
486
487
488
489
490
491
492
493
494
495
496
497
498
499
</DataArray>
<DataArray NumberOfComponents='1' type='Int8' Name='IsActive' format='ascii'>
1
0
1
1
0
1
0
1
1
1
1
1
1
1
1
1
1
1
1
0
1
1
0
1
1
0
1
1
1
1
1
1
1
1
1
1
0
0
1
0
1
1
1
1
1
1
1
1
1
1
1
1
0
1
1
1
1
1
1
1
1
1
1
1
1
1
1
1
1
0
1
1
0
0
1
1
1
0
1
1
1
1
1
0
0
1
1
0
0
0
1
1
1
1
0
1
1
1
1
1
1
1
1
1
1
0
1
0
1
0
0
1
1
1
1
1
1
1
1
1
1
1
1
0
1
1
0
1
0
1
1
1
1
0
1
1
1
1
1
1
1
1
1
0
0
1
1
0
1
0
1
1
0
0
1
1
1
1
1
1
1
1
1
1
1
1
1
1
1
1
1
1
0
1
1
1
1
1
1
0
1
1
1
1
1
1
1
1
1
1
1
1
1
1
1
0
0
1
1
1
0
0
1
1
1
0
1
1
0
1
1
0
1
1
1
0
1
1
1
1
0
1
1
1
0
1
1
1
1
1
1
1
1
0
1
1
1
1
1
1
1
1
1
1
0
1
1
1
1
1
1
1
1
1
1
1
1
1
1
1
1
1
0
1
1
0
1
1
1
1
1
1
0
1
0
1
1
1
0
1
1
0
1
1
1
1
1
1
0
1
1
0
0
1
1
1
0
1
1
1
1
0
1
0
1
0
1
1
1
1
1
1
1
0
0
1
1
1
1
1
1
0
1
1
1
0
1
1
1
1
1
1
1
0
1
0
1
1
1
0
1
1
1
1
1
1
1
1
1
1
1
1
1
1
1
1
1
1
1
1
0
0
1
0
1
1
1
1
1
1
1
1
0
1
0
1
1
1
1
1
0
1
1
1
1
0
0
1
1
1
1
1
0
1
0
1
1
1
1
1
1
1
1
1
1
1
1
0
1
1
1
1
1
1
0
1
1
1
1
0
1
1
1
1
1
1
0
1
0
1
1
1
1
1
1
1
1
0
1
1
0
1
0
0
1
1
1
1
0
1
1
1
1
1
1
1
1
1
0
1
1
1
1
1
1
1
1
1
1
1
1
1
1
1
0
1
1
1
1
1
1
1
1
1
1
0
1
1
1
1
1
1
1
1
1
0
1
1
1
1
</DataArray>
<DataArray NumberOfComponents='1' type='Int32' Name='ParticleTetID' format='ascii'>
31286
-61515
9901
28228
-58962
8750
-66558
66349
25273
12476
60476
5630
9415
30457
64818
66372
66225
68890
6625
-66554
62105
5708
-58961
30174
73916
-70586
14519
68295
15748
29651
74993
4160
67703
63021
88989
73715
-66561
-66555
45050
-66557
51949
25038
2932
36445
70567
9448
106
65992
68193
74865
65003
42085
-61515
11482
19262
71913
31591
3811
79243
69395
15801
65001
39065
72959
63030
22985
54088
75661
71085
-66551
68225
34
-112396
-64916
25364
54695
62688
-58965
74957
61224
129
65382
64325
-66554
-58961
30457
80919
-61515
-66557
-66558
6262
79801
63096
56334
-61515
17264
21996
79291
64235
71157
68592
7889
52659
3810
6111
-58955
34678
-59786
5065
-66554
-66554
2273
24500
60309
61761
57812
51024
63725
7958
55393
2771
74054
61784
-66554
67415
15191
-146594
75045
-58962
73310
14346
7436
60789
-66588
76727
74172
68511
62900
26433
7436
72963
78870
52973
-61512
-58955
26932
52405
-58955
72786
-156163
75478
66367
-61515
-58955
58816
9850
69305
7285
21224
12692
68980
9256
77156
29403
27525
62988
69899
43697
52942
32082
11275
78404
-58958
64747
76720
63131
10690
71917
63149
-58958
63156
74369
57118
78845
98736
60165
64289
88149
7333
8713
31024
65819
62033
62762
15175
-66558
-59786
69395
67395
73308
-58958
-58965
16936
62435
53245
-59786
15716
76017
-66551
7346
61208
-72207
62252
75661
74228
-59788
59423
66758
60304
16989
-58955
10220
11771
59247
-58955
57316
69526
31191
52405
72039
57414
25886
26675
-59785
57225
37371
62793
30271
82933
54020
14183
73623
61876
60719
-58958
18084
74966
26932
53839
24407
62679
63008
58848
67110
79586
37
45137
12182
6659
64819
45080
25885
-66554
63132
79114
-66551
14453
19217
73900
6445
71289
2213
-61514
13037
-61515
9280
56999
62036
-64916
62684
60040
-64916
78402
58527
71103
14127
57201
9055
-58961
21272
66368
-61512
-58955
19262
16991
62780
-66551
6872
57789
11108
9454
-66555
75351
-126563
68421
-66558
65815
30393
24207
79751
58980
12887
14970
-66555
-66551
7418
68520
39746
61083
72958
62330
-58955
75000
30173
5901
-72207
35012
57830
69919
59261
17372
9397
54404
-66557
6262
-66557
51025
65805
25381
-58962
58955
7502
75479
42422
22625
66663
2306
30482
51008
87483
73893
78402
6139
73770
29899
7463
95772
63962
68925
67708
-58955
-66551
32458
-58961
5431
54397
5412
30023
6778
76249
4242
9415
-61511
66377
-59788
621
82961
52527
60305
72188
-66557
56415
30803
57443
2276
-112399
-58955
62773
61352
9652
66376
16271
-61518
51574
-66555
25899
57315
1763
74476
9361
62753
12232
33347
1367
64107
58127
50996
-66552
72687
62126
51573
57414
78753
7997
-61518
173512
59460
27599
17032
-61518
72910
5723
28659
65403
58215
71921
-59791
28100
-66551
127228
58223
25349
59802
32626
2276
14075
58827
-61518
66783
14453
-66591
29408
-58955
-66557
7317
67262
64193
58303
-64916
5884
25362
78736
57416
37289
5884
65138
34093
76272
-66552
58179
7682
67654
79871
31373
9487
78393
52471
61511
30238
57658
15748
70723
4515
100698
-127033
60773
31914
64811
67413
7478
4516
76721
649
64289
32466
-58965
22314
41628
1616
71825
73595
75611
29568
98736
42033
-66551
17877
69571
30119
62989
</DataArray>
<DataArray NumberOfComponents='3' type='Float32' Name='vels' format='ascii'>
0.360255 0.097819 0.000638
2.941750 0.743093 0.251364
1.646577 0.439646 -0.001282
2.644193 -0.597555 0.001141
4.011166 -0.808442 0.007605
0.107153 -0.016365 0.000220
5.291425 0.658114 0.015048
0.650727 0.039652 0.002287
2.179998 0.768998 -0.000396
0.102846 0.016617 -0.000518
2.359061 0.441872 -0.001094
0.685017 0.112691 -0.000404
0.103886 0.000241 0.000521
1.476216 0.769553 -0.000168
0.427916 -0.111119 -0.001735
0.773678 0.271414 0.000523
1.015150 0.017901 -0.002712
2.119063 -0.545984 0.002416
0.045667 0.007373 -0.002318
4.618366 0.202199 0.374453
0.006561 0.001061 0.000146
0.102771 0.126246 -0.000222
3.564954 -0.948543 -0.100939
0.617741 0.405579 0.000949
3.020376 -0.955549 -0.000126
2.709453 -0.571234 0.037044
1.705097 0.325145 -0.000124
3.008510 0.679334 -0.003038
0.460777 -0.289812 -0.000048
0.674664 0.530816 0.000392
0.005758 0.018662 0.001733
0.833158 0.525059 0.000473
1.077535 -0.342838 -0.001562
1.191650 -0.017309 -0.000299
4.264467 0.261593 0.191961
0.637949 -0.119997 0.003627
3.361597 0.485264 0.057820
5.072144 0.616756 0.203979
0.024188 -0.024900 0.005798
4.822554 0.159554 -0.071552
2.022778 0.366336 -0.031028
3.697171 -0.044718 0.002759
0.011656 0.005865 -0.000001
1.658262 -0.746718 0.013386
0.384817 0.008903 -0.001402
0.089828 -0.000226 -0.000167
0.536950 0.647398 -0.000571
1.386448 -0.015573 0.001385
1.434750 0.198196 0.000575
0.071811 -0.022285 0.001042
2.788860 -0.547368 0.001966
5.211929 -1.228861 -0.033217
2.831417 0.656188 0.157502
0.011369 -0.005632 0.000004
-0.002167 0.000672 -0.000297
1.695948 0.091987 0.000990
0.700789 -0.646890 0.000951
0.800438 0.010274 0.000761
3.662501 -1.060792 -0.006640
0.019842 0.000006 -0.000958
0.974876 0.736020 0.000177
1.758612 -0.332875 -0.001186
0.463139 0.513369 -0.000296
1.254835 0.021976 0.001165
1.758448 -0.044454 -0.000193
0.760375 -0.036275 -0.000204
0.037283 0.040964 -0.000035
3.538417 -0.891397 0.003375
2.456683 0.507148 0.000110
4.121013 0.480241 0.104173
2.600853 0.522537 0.000812
0.000416 -0.001625 0.000012
46.675339 14.517866 -0.076229
4.966831 -0.741021 0.103249
0.280899 -0.022512 -0.000010
2.273175 -0.910737 -1.686799
0.697044 -0.002711 -0.000693
4.058145 -0.762731 -0.344492
0.000902 -0.002570 0.001330
0.022130 0.000000 -0.000361
0.798869 0.503894 0.000256
2.209470 0.065890 0.002755
1.051689 -0.181432 -0.002613
5.270291 0.597518 0.093265
3.790543 -0.755850 0.004429
1.427264 0.791652 0.000042
12.037988 -1.316881 2.706600
2.891380 0.658313 0.072510
4.708169 0.714293 0.041555
5.286538 0.662013 0.016323
0.090270 0.007074 0.000004
4.281005 -0.738981 0.001207
2.043251 0.050698 -0.000440
2.640904 0.490206 -0.000051
2.925429 0.736889 0.253986
0.599294 -0.011059 -0.000666
0.504225 -0.006847 -0.000264
0.934671 0.140473 0.001985
1.643768 -0.290513 -0.001722
2.093374 0.493189 0.000980
2.587790 0.507140 -0.002812
0.005292 0.001554 -0.000150
2.944756 0.163141 -0.128406
-0.003372 -0.000005 0.001893
0.008239 0.001334 0.000708
3.529941 -0.711878 0.030954
5.259679 -1.365075 -0.003830
5.068028 0.739679 0.098900
0.194572 0.030991 0.002007
5.282705 0.607003 0.090999
4.672356 0.220515 0.340548
0.000237 0.003484 0.000571
0.167957 -0.043869 -0.000232
2.652316 0.111690 0.003441
1.479770 -0.054763 -0.000211
2.684625 -0.264613 0.003003
-0.031850 -0.130344 -0.013111
1.613560 -0.312501 0.001906
0.142152 0.041334 -0.000564
2.790591 1.081408 -1.682533
0.072341 0.003780 -0.000303
0.143687 0.135882 -0.000168
2.345394 -0.361431 0.001609
5.187976 0.534039 0.131804
0.075254 0.000212 0.000022
0.093491 -0.061478 0.000109
0.063052 -0.112684 0.126129
0.046841 0.011423 0.000156
3.941319 -0.939718 0.019078
2.894625 0.722790 -0.000361
0.813427 -0.139944 0.000671
0.027899 -0.000025 -0.001806
2.696521 -0.541295 0.005784
3.315421 0.229466 0.303735
3.269610 0.162910 -0.001013
3.702636 -0.932834 0.016684
1.899424 0.037198 -0.001631
0.024823 -0.000017 0.000364
2.371509 1.130647 0.408233
0.007903 -0.000006 -0.001355
1.464144 0.021265 -0.000097
3.457683 0.402191 0.004021
0.735168 0.578358 -0.000124
2.267504 0.537684 0.170558
3.031390 -0.650702 0.168210
1.120919 0.310442 -0.001408
0.112012 0.000784 -0.006335
3.485382 -0.705401 0.047642
3.661002 0.333876 -0.009812
0.078912 -0.035162 -0.038296
3.659190 0.832259 -0.001515
0.246511 0.154121 -0.003846
3.143853 0.750221 0.009430
3.065246 -0.673178 0.198509
2.081096 -0.310791 0.001023
2.174863 0.576463 -0.002258
1.643563 0.083383 0.001883
0.543785 -0.001853 0.001414
0.263313 -0.027152 -0.000178
0.599958 -0.007188 0.002578
0.460355 -0.000890 0.000854
2.370794 0.614200 -0.001539
2.989732 -0.579718 0.001970
3.160213 -1.151630 0.000796
4.844798 -1.148553 -0.019983
0.747020 -0.003984 0.001091
2.005804 -0.391025 0.003030
0.000519 0.001709 -0.002518
0.125579 0.000406 -0.000812
2.295409 -0.581297 0.061104
2.215513 0.599926 0.001792
3.560762 0.827250 0.008296
4.195891 -0.823559 0.007726
0.644183 -0.197050 0.000777
2.106029 0.089534 0.001247
0.018758 -0.000014 0.000291
0.000246 0.000559 0.000125
2.176307 0.070077 -0.003331
0.514300 0.001946 0.002328
3.998002 -0.839101 0.052347
1.503334 0.021427 -0.000178
1.036605 0.377060 0.000866
2.100982 0.086698 0.000704
1.788337 -0.130802 0.000551
-0.002203 0.001742 0.007439
3.456506 -0.868903 -0.000009
2.014356 -0.359339 -0.000198
4.616523 -0.007197 0.020873
0.056323 -0.000132 0.000340
0.933881 0.168933 0.000032
2.617394 2.051529 0.004274
4.348761 -0.480767 0.005424
0.184895 0.029618 -0.000152
0.023517 0.000087 0.000631
1.240909 -0.709315 0.000989
5.273003 0.663612 0.018242
5.040750 0.742126 0.111195
0.003731 0.000001 -0.000990
3.002349 0.432953 -0.075280
2.873371 0.723431 -0.000671
3.570209 -0.858505 0.231158
3.211295 -0.716464 -0.163990
0.002770 -0.000989 0.000001
0.005243 0.000852 0.000182
0.086874 0.001174 -0.010950
5.049348 0.741882 0.100253
0.211123 0.255397 -0.000290
0.912333 0.367209 0.001417
3.395705 0.225840 0.335863
0.509284 -0.004884 -0.000734
0.022992 0.000034 0.000020
2.260284 0.109515 0.021262
0.023985 -0.003935 0.000510