<VTKFile type='UnstructuredGrid' version='1.0' byte_order='LittleEndian' header_type='UInt64'>
<UnstructuredGrid>
<Piece NumberOfCells='500' NumberOfPoints='500'>
<Points>
<DataArray NumberOfComponents='3' type='Float32' Name='Position' format='ascii'>
-284.375729 228.355140 -4.886579
-130.402974 167.979064 -21.492886
-462.836609 287.171597 -6.293681
-301.085169 257.233412 -10.145728
-75.808285 271.235748 -22.688168
-405.649236 149.921484 -1.965303
-102.798638 142.196654 -27.991348
-247.834015 303.607120 -7.279078
-283.767496 227.745099 -5.102405
-361.980257 246.316889 -4.721826
-162.650467 134.917786 -32.503969
-424.873417 95.816106 -29.991089
-392.482996 218.640371 -5.959560
-313.335186 152.361395 -3.970379
-170.575659 251.359089 -6.846196
-41.548994 334.834438 -16.269704
-128.473530 153.813905 -9.245763
-83.880323 367.987284 -14.970384
-383.139366 277.836809 -6.309200
-72.047438 52.246446 -21.389794
-49.293661 152.362835 -16.250121
-307.070428 83.007656 -4.229411
-65.622423 261.963107 -26.064191
-186.211642 368.197773 -15.691674
-43.373735 330.703385 -19.385887
-44.749000 260.266523 -20.950314
-386.746501 211.176278 -24.100912
-90.909769 159.354857 -14.503117
-332.453795 299.910768 -37.541836
-192.244975 349.581171 -7.083849
-38.643444 243.151520 -15.937938
-339.838971 163.700898 -2.614031
-149.842643 367.486188 -11.480810
-101.605598 244.763507 -11.505208
-443.053803 290.096955 -19.949250
-153.446126 231.383943 -9.006973
-94.073515 142.047587 -27.512599
-76.659458 57.538564 -20.162395
-180.402780 226.212982 -30.877138
-129.460545 48.316513 -28.195320
-204.025662 58.129839 -7.134395
-305.666838 158.164733 -3.945309
-318.565519 158.790859 -36.944148
-271.727403 63.812572 -32.516802
-39.914608 240.030801 -21.478659
-426.099044 217.627562 -37.735729
-327.397561 91.193391 -35.249964
-47.615639 253.809007 -14.360653
-57.833153 358.885921 -22.792999
-114.418104 241.472344 -9.858135
-69.177107 338.507923 -13.486243
-277.678462 238.428655 -6.438719
-105.527737 163.367073 -19.064562
-332.049659 302.190298 -37.362304
-501.797082 192.582668 -3.047423
-196.657637 165.849938 -8.003256
-289.776211 311.817419 -5.668131
-487.001845 182.818500 -32.818008
-42.529201 343.346568 -20.847111
-167.968170 36.698101 -14.434797
-343.312716 156.379462 -34.011684
-85.499538 338.007339 -13.494540
-212.514632 358.163492 -10.049519
-114.769072 235.181331 -10.737000
-135.136095 245.235224 -31.693589
-353.088329 239.633951 -37.379984
-259.308598 168.660536 -32.659672
-42.762151 334.695158 -19.762375
-155.353094 55.207830 -9.114266
-82.422232 49.052491 -15.287306
-233.313153 91.613575 -14.225741
-427.314187 183.833120 -35.301496
-154.420132 371.520376 -21.718380
-64.692543 333.254530 -25.050191
-312.196713 231.271637 -2.958072
-333.953663 221.776030 -32.763642
-107.950460 245.232284 -29.618470
-109.306807 257.669085 -28.434730
-53.170290 239.839969 -15.218041
-85.244220 231.831117 -15.912656
-390.956480 151.307939 -6.587779
-61.551207 233.175379 -16.241274
-91.601504 358.172717 -28.069057
-103.000917 59.431557 -20.782767
-81.337110 270.470242 -20.503442
-330.831887 153.871018 -3.581528
-191.967739 357.599265 -11.821385
-115.056902 165.008186 -18.624929
-86.431064 37.956303 -23.243810
-82.852082 142.083682 -27.172482
-313.471764 225.747858 -35.400329
-42.230111 333.710189 -20.528525
-44.952332 236.024243 -18.029996
-161.282214 134.752263 -32.176430
-136.865506 168.772022 -22.692801
-361.421286 224.268815 -2.634847
-387.571602 217.312165 -2.325571
-280.109329 259.309992 -10.028784
-158.545944 334.969675 -30.886734
-158.042564 64.134861 -9.566308
-153.938463 136.059726 -31.728329
-443.744714 294.956313 -12.507402
-299.558002 291.658673 -23.529179
-433.060055 176.982906 -26.668582
-411.578138 247.617326 -18.988447
-107.508415 259.452728 -13.033765
-353.799269 179.820343 -24.590520
-52.576586 145.954237 -20.155484
-401.044736 243.853134 -19.386695
-113.648277 31.259058 -21.078519
-86.294487 54.835453 -24.501872
-502.647092 192.157632 -10.401887
-308.602698 319.216597 -3.405091
-295.610421 178.698494 -23.430993
-166.177606 253.254649 -7.145995
-151.165112 259.389731 -31.926373
-88.631407 230.194346 -24.450291
-106.138452 345.795272 -13.239839
-474.825415 286.323891 -6.050241
-320.138088 211.879445 -27.489412
-361.710298 85.375234 -36.081446
-264.598797 160.459092 -6.759155
-55.010111 356.532372 -15.819326
-72.931341 39.269342 -20.033699
-105.317318 246.177342 -10.500723
-316.333435 313.905605 -33.954581
-277.545910 137.743933 -17.948356
-116.858234 242.514310 -10.046228
-203.815518 266.810692 -23.796922
-184.408230 63.950004 -32.384764
-363.494699 111.543092 -4.685214
-454.535233 213.212206 -4.998070
-58.919795 336.409034 -13.910325
-76.617663 40.148446 -16.272967
-206.667768 173.995971 -27.185910
-138.553761 150.248039 -30.885781
-224.570862 172.995995 -8.985732
-83.445587 240.426770 -19.997540
-185.273012 366.247643 -23.295067
-466.862899 211.234205 -3.555189
-135.766969 225.134936 -20.333206
-143.975812 258.646732 -30.805992
-188.759824 162.925941 -32.384868
-50.041030 168.827675 -17.427840
-56.620944 263.998598 -14.966253
-181.634926 363.190229 -11.183796
-169.306587 30.312419 -23.511446
-116.963149 266.371461 -11.889616
-150.229362 149.704927 -31.449857
-165.661625 156.115551 -32.770870
-144.276632 53.488220 -13.244319
-138.291433 347.090575 -8.450361
-48.480862 160.253521 -18.944161
-108.448934 275.507465 -17.305148
-134.938684 369.734035 -25.369173
-473.986560 279.954286 -13.360294
-196.903171 39.789082 -14.895574
-447.432382 180.620082 -32.669210
-365.595116 218.353296 -2.750646
-352.543491 219.410682 -5.207902
-95.615893 246.102061 -11.709413
-406.365349 301.222144 -13.342316
-101.806136 335.578188 -25.155801
-340.010381 279.802938 -21.780963
-316.563953 92.092131 -6.576928
-97.874927 246.807646 -11.956341
-136.000759 332.342153 -11.594909
-120.205558 225.933359 -24.328600
-174.745536 38.460040 -14.174546
-234.358639 48.584457 -13.929098
-465.840621 289.050388 -19.696508
-198.168443 79.469352 -28.981178
-52.183550 263.622805 -19.084880
-299.048977 239.452169 -6.627020
-179.331765 174.123576 -14.968131
-110.512715 236.820466 -12.103793
-521.314749 274.275326 -37.157024
-145.816877 224.286202 -20.398942
-95.641087 251.031595 -11.109469
-43.244562 258.638430 -22.109179
-67.168608 234.746569 -24.403935
-157.671596 338.259743 -32.032435
-180.488426 158.958781 -7.805182
-123.537592 367.103745 -13.629299
-302.209378 67.231646 -27.131951
-65.862841 353.817948 -25.810683
-84.822190 358.969472 -27.571671
-350.535489 322.770928 -17.518107
-378.360546 177.027822 -19.900850
-401.377902 269.679410 -2.879080
-303.429483 292.810100 -24.775429
-160.650411 162.986590 -29.446450
-65.124408 139.761662 -15.980933
-87.304426 245.992485 -27.543553
-354.697260 302.184053 -2.759419
-104.922819 137.254399 -27.869139
-43.714057 158.851875 -20.310693
-140.825846 30.985689 -15.449393
-127.728453 125.495545 -14.195301
-188.922382 65.642369 -32.843496
-55.282923 262.087764 -23.886591
-144.081750 267.390514 -27.957229
-302.658542 316.970035 -34.816016
-146.642781 137.411034 -30.588373
-189.410502 39.982949 -10.616245
-41.402904 159.676112 -21.069501
-340.408474 103.429624 -4.875898
-305.109547 298.419858 -12.702733
-69.163130 54.052143 -17.274722
-464.835707 183.178700 -2.411203
-43.850310 241.146470 -19.007689
-55.253928 243.010669 -20.005828
-99.689612 338.892441 -19.648783
-41.819496 342.240408 -20.534424
-170.683925 52.051361 -31.966708
-57.823169 146.070341 -23.878801
-169.497995 171.892271 -15.005098
-110.333613 247.543060 -29.558547
-117.044807 153.633052 -12.805254
-377.423364 86.438817 -34.676882
-79.216752 269.961293 -15.371978
-409.703446 183.097026 -30.145156
-353.051440 105.705624 -34.314528
-131.634407 223.089735 -22.721310
-40.672335 257.983758 -16.996229
-293.483705 69.339114 -19.735769
-143.871382 232.975042 -28.643089
-353.249123 218.005596 -36.146425
-179.918200 33.781784 -24.026873
-237.993545 175.155391 -8.454659
-171.184585 127.675747 -29.671628
-316.790556 241.238704 -3.304821
-284.800825 225.685829 -35.964605
-119.111386 123.165505 -18.326693
-385.257917 93.897648 -13.253190
-365.044580 315.564199 -6.876984
-152.763519 170.792446 -24.018891
-336.628885 223.069483 -33.109674
-283.915822 220.408057 -18.784103
-166.711520 358.741724 -8.535056
-325.792955 91.766246 -34.654703
-171.041784 237.902163 -7.505716
-196.577275 171.957482 -28.893482
-147.231159 165.798982 -10.980950
-55.789701 265.479198 -22.178721
-398.621252 211.408951 -29.924865
-148.273268 238.066976 -31.534518
-180.361718 366.519252 -14.448264
-245.666209 72.025876 -6.756178
-349.962137 145.236158 -35.033206
-124.209207 239.194178 -9.711100
-37.037968 241.540113 -17.218359
-96.310262 375.613193 -17.777553
-130.337443 373.099907 -21.759514
-42.478608 342.060715 -18.636962
-367.825529 176.925971 -4.711802
-298.097654 216.829236 -24.072624
-477.065434 287.883159 -31.975012
-370.876653 280.967561 -37.037468
-216.468189 235.047207 -6.786020
-93.755927 227.733508 -17.828340
-309.640492 230.472807 -3.485481
-81.492968 57.493816 -21.742908
-46.057190 251.880245 -15.463084
-54.767668 327.364675 -15.971370
-78.592291 54.536105 -16.461015
-338.988641 173.604456 -36.919328
-498.364462 188.190464 -23.810526
-143.139776 161.700689 -27.986375
-380.260817 247.401440 -3.829865
-58.596817 340.718301 -25.441811
-408.814778 127.316540 -36.876203
-68.055908 164.154229 -24.767084
-315.782945 175.487394 -12.702056
-74.375649 164.909457 -22.223677
-379.014664 177.027926 -26.628970
-198.508503 171.111532 -27.862420
-75.423764 132.354230 -22.846765
-47.262479 346.901834 -23.058721
-77.862928 255.209458 -26.976191
-66.903062 337.758055 -26.361248
-59.263986 333.328049 -25.113617
-181.320306 60.826193 -32.143369
-53.536348 355.574496 -23.043722
-202.878939 171.021271 -9.649184
-380.943035 147.730282 -34.708298
-131.762444 52.224948 -28.432582
-358.466821 314.126205 -4.275270
-166.463374 325.399179 -27.301901
-304.911463 251.627920 -32.407572
-150.685576 341.622123 -7.877033
-78.490003 156.490675 -13.854334
-33.231516 248.102070 -19.274581
-503.051390 193.921806 -5.859290
-434.428595 109.879874 -33.535436
-148.774363 239.910568 -31.955161
-69.086477 51.959956 -16.853160
-358.403615 147.547464 -32.493770
-190.055500 217.203957 -21.699274
-478.788793 211.429357 -4.640136
-403.761133 215.012877 -12.537467
-255.980198 91.134434 -24.435222
-217.158411 311.684863 -8.067254
-33.903446 250.237959 -17.723953
-191.105943 236.103504 -6.787513
-140.522596 144.371648 -31.927525
-129.241414 168.773408 -23.831525
-366.319596 310.662339 -20.002562
-363.770644 108.276654 -33.833284
-99.952778 363.553491 -28.061922
-130.950640 138.808779 -29.825131
-468.032276 211.889060 -36.556993
-366.337614 307.691389 -26.667410
-100.610248 59.698323 -18.721322
-72.155487 48.390351 -16.275436
-451.957989 213.875636 -4.057783
-161.601520 158.456921 -31.809446
-302.395570 160.134721 -3.764215
-43.021505 344.906465 -21.207269
-84.585774 236.701886 -13.641384
-148.075092 255.564437 -32.248289
-103.384967 264.183693 -11.759973
-164.697144 233.693588 -32.390235
-213.295653 357.118365 -9.947058
-384.106074 178.726442 -35.759611
-38.308607 242.718767 -16.470154
-317.900375 171.267679 -3.573918
-194.273366 47.857411 -32.629903
-55.626045 145.857732 -21.139897
-158.870334 163.644422 -12.450786
-413.921355 215.136563 -2.891856
-375.984503 178.216900 -5.241743
-209.376005 46.023660 -31.166226
-114.746117 51.521440 -27.393649
-329.414518 225.132750 -37.701008
-116.793558 47.866518 -27.399412
-318.147004 218.937120 -31.585611
-165.368279 238.696224 -32.996042
-279.243026 154.183613 -5.953233
-55.963017 261.851947 -23.644662
-119.027807 267.134130 -10.940558
-392.893168 216.910731 -32.908001
-136.771617 50.698225 -12.986703
-212.212749 356.094258 -27.766805
-352.287115 101.405898 -34.112273
-203.385820 171.048562 -27.328620
-375.730223 299.009301 -2.411275
-300.939575 250.899418 -19.605004
-198.452981 220.124944 -28.601491
-204.887001 223.087878 -8.813998
-93.113777 151.384053 -13.353369
-172.074825 56.922396 -31.724006
-499.865788 278.165802 -6.625711
-296.172182 178.221354 -17.462331
-258.019567 326.758036 -6.005235
-432.102518 217.813318 -26.536338
-245.512223 51.567781 -8.658011
-50.673689 351.499359 -18.541243
-150.686858 339.080781 -8.255265
-161.247830 349.787392 -31.921610
-49.870234 265.120676 -20.347232
-67.560813 52.427904 -18.160390
-166.116070 362.329328 -9.158847
-68.482678 267.498558 -25.941940
-419.828664 98.753940 -32.073906
-200.470261 38.763033 -14.547101
-436.594921 209.331005 -28.182828
-328.228012 246.248239 -36.000446
-346.546156 142.616194 -26.523396
-159.463507 142.241140 -7.625370
-401.019346 210.788254 -29.763641
-392.991399 216.480062 -5.395334
-112.063115 163.889575 -14.007330
-162.229803 336.694965 -32.792565
-50.852408 159.477761 -22.250164
-395.104416 209.003584 -22.645244
-103.202408 353.848222 -11.512382
-259.630651 78.950351 -6.717012
-179.379019 169.490490 -10.735538
-55.750100 358.833829 -17.464335
-77.112504 48.406901 -23.450841
-137.808582 51.773562 -10.960113
-243.622126 56.667895 -7.835509
-136.118647 56.227340 -12.735375
-502.201620 192.949180 -17.285539
-99.049388 372.830558 -25.267381
-134.269707 274.600681 -15.128697
-41.953494 237.143986 -18.190111
-112.584230 376.992114 -24.318335
-406.947971 90.719487 -11.142269
-133.048791 350.348516 -29.955928
-484.072812 211.800046 -37.829625
-112.211977 167.861222 -23.002432
-311.820625 179.164504 -10.590027
-148.840496 64.619022 -19.009488
-325.325003 229.615955 -34.340232
-182.320866 61.387850 -7.948181
-361.354303 319.601375 -35.031549
-292.695560 171.690101 -26.162853
-451.362939 179.034671 -5.783221
-58.897365 245.172311 -13.570025
-477.448426 115.847563 -26.438971
-289.589938 100.774377 -23.986392
-362.322067 316.012120 -36.047987
-82.280717 359.389362 -27.259473
-169.253726 56.597655 -8.441795
-169.241854 233.949324 -8.062871
-77.624747 58.194613 -16.632786
-127.552706 234.670691 -10.140049
-47.069740 165.986327 -20.801216
-287.666749 178.377354 -7.556441
-162.581388 130.172262 -31.209259
-268.385823 64.118610 -13.089850
-478.894061 285.534254 -13.059532
-68.893911 159.917428 -25.826634
-342.298502 86.319304 -33.134930
-160.395423 171.573840 -17.199195
-306.743038 293.458184 -11.608310
-391.572673 211.967581 -11.134458
-68.919402 159.734359 -25.845057
-206.508839 264.880098 -30.581045
-313.373458 85.512032 -35.820954
-181.563690 344.860988 -7.106589
-58.562844 236.234594 -24.974143
-234.652267 175.108149 -9.152710
-198.081242 220.800061 -29.742598
-100.713651 154.160285 -27.897102
-280.808334 234.481730 -5.952534
-85.966024 42.166836 -14.914272
-45.080763 257.543760 -22.132892
-276.674747 180.367668 -28.420055
-211.294150 43.565116 -10.531245
-39.307706 253.202608 -16.263367
-301.022790 137.542704 -23.751857
-502.154955 194.030551 -18.253694
-419.769960 218.561517 -36.242034
-149.565451 165.273816 -10.651137
-145.965843 168.588248 -24.601316
-53.078871 324.531343 -17.575863
-349.239499 173.725326 -35.625064
-66.364352 49.823521 -20.828896
-323.147561 292.277986 -31.894793
-38.963861 246.762185 -19.563728
-86.618614 54.637580 -24.807938
-449.797597 184.621150 -22.450629
-140.444934 151.023463 -31.153304
-147.653569 130.293603 -9.360189
-154.289706 59.149201 -9.252574
-44.426648 343.484303 -22.248839
-320.367169 229.692504 -37.015221
-322.089301 238.771959 -3.003582
-132.640771 47.828903 -11.502031
-160.427575 142.592308 -32.836092
-323.386334 182.673892 -27.247680
-382.543011 227.056906 -36.836285
-137.257985 244.237932 -31.802066
-282.958885 163.216178 -6.321515
-154.044145 166.989955 -18.770520
-81.947999 56.022900 -15.922442
-256.769318 172.368981 -7.331356
-439.621377 105.466460 -32.165238
-154.832672 338.196135 -31.469465
-141.099842 231.287239 -12.471168
-301.630831 221.153036 -35.648801
-416.912659 216.824269 -5.545224
-149.618088 34.756988 -14.547230
-199.420882 55.425261 -7.296511
-88.813123 158.309511 -14.358825
-314.577477 236.690256 -35.028372
-126.762488 129.935031 -11.496842
-334.681833 299.571183 -37.681210
-188.724801 330.246509 -6.863761
-353.979212 315.942819 -35.984833
-259.408586 53.632872 -8.434044
-178.567305 318.169366 -24.256893
-153.983573 56.061432 -9.343983
-302.191393 169.031850 -3.653280
-168.232443 340.596431 -32.655786
-117.966713 236.035265 -10.136269
-436.509373 212.855460 -19.305780
-377.816021 306.728021 -37.339512
-138.236818 155.939004 -8.989866
-349.237760 173.865695 -3.026573
-90.333742 343.811647 -27.436869
-173.282657 360.971485 -30.438287
-67.487958 265.316868 -25.542009
-405.292369 211.223789 -29.942354
-166.513266 361.743289 -30.211067
-387.221441 183.203604 -29.842427
-189.211512 222.115964 -9.713614
-74.635061 362.756165 -25.539798
-80.998578 370.240548 -22.389515
-214.039046 355.898949 -27.440554
-225.108621 45.491948 -29.827457
-330.720321 77.771596 -12.918340
-86.866005 39.012795 -15.344410
-326.775555 139.314296 -9.607386
-144.548882 60.074662 -9.542183
-309.434106 290.078232 -10.097227
-31.509760 246.875697 -20.217969
</DataArray>
</Points>
<PointData>
<DataArray NumberOfComponents='1' type='Int32' Name='ParticleType' format='ascii'>
1
1
1
1
1
1
1
1
1
1
1
1
1
1
1
1
1
1
1
1
1
1
1
1
1
1
1
1
1
1
1
1
1
1
1
1
1
1
1
1
1
1
1
1
1
1
1
1
1
1
1
1
1
1
1
1
1
1
1
1
1
1
1
1
1
1
1
1
1
1
1
1
1
1
1
1
1
1
1
1
1
1
1
1
1
1
1
1
1
1
1
1
1
1
1
1
1
1
1
1
1
1
1
1
1
1
1
1
1
1
1
1
1
1
1
1
1
1
1
1
1
1
1
1
1
1
1
1
1
1
1
1
1
1
1
1
1
1
1
1
1
1
1
1
1
1
1
1
1
1
1
1
1
1
1
1
1
1
1
1
1
1
1
1
1
1
1
1
1
1
1
1
1
1
1
1
1
1
1
1
1
1
1
1
1
1
1
1
1
1
1
1
1
1
1
1
1
1
1
1
1
1
1
1
1
1
1
1
1
1
1
1
1
1
1
1
1
1
1
1
1
1
1
1
1
1
1
1
1
1
1
1
1
1
1
1
1
1
1
1
1
1
1
1
1
1
1
1
1
1
1
1
1
1
1
1
1
1
1
1
1
1
1
1
1
1
1
1
1
1
1
1
1
1
1
1
1
1
1
1
1
1
1
1
1
1
1
1
1
1
1
1
1
1
1
1
1
1
1
1
1
1
1
1
1
1
1
1
1
1
1
1
1
1
1
1
1
1
1
1
1
1
1
1
1
1
1
1
1
1
1
1
1
1
1
1
1
1
1
1
1
1
1
1
1
1
1
1
1
1
1
1
1
1
1
1
1
1
1
1
1
1
1
1
1
1
1
1
1
1
1
1
1
1
1
1
1
1
1
1
1
1
1
1
1
1
1
1
1
1
1
1
1
1
1
1
1
1
1
1
1
1
1
1
1
1
1
1
1
1
1
1
1
1
1
1
1
1
1
1
1
1
1
1
1
1
1
1
1
1
1
1
1
1
1
1
1
1
1
1
1
1
1
1
1
1
1
1
1
1
1
1
1
1
1
1
1
1
1
1
1
1
1
1
1
1
1
1
1
1
1
1
1
1
1
1
1
1
1
1
1
1
1
1
1
1
1
1
1
1
1
1
1
1
1
1
1
1
1
1
</DataArray>
<DataArray NumberOfComponents='1' type='Int32' Name='ParticleID' format='ascii'>
0
1
2
3
4
5
6
7
8
9
10
11
12
13
14
15
16
17
18
19
20
21
22
23
24
25
26
27
28
29
30
31
32
33
34
35
36
37
38
39
40
41
42
43
44
45
46
47
48
49
50
51
52
53
54
55
56
57
58
59
60
61
62
63
64
65
66
67
68
69
70
71
72
73
74
75
76
77
78
79
80
81
82
83
84
85
86
87
88
89
90
91
92
93
94
95
96
97
98
99
100
101
102
103
104
105
106
107
108
109
110
111
112
113
114
115
116
117
118
119
120
121
122
123
124
125
126
127
128
129
130
131
132
133
134
135
136
137
138
139
140
141
142
143
144
145
146
147
148
149
150
151
152
153
154
155
156
157
158
159
160
161
162
163
164
165
166
167
168
169
170
171
172
173
174
175
176
177
178
179
180
181
182
183
184
185
186
187
188
189
190
191
192
193
194
195
196
197
198
199
200
201
202
203
204
205
206
207
208
209
210
211
212
213
214
215
216
217
218
219
220
221
222
223
224
225
226
227
228
229
230
231
232
233
234
235
236
237
238
239
240
241
242
243
244
245
246
247
248
249
250
251
252
253
254
255
256
257
258
259
260
261
262
263
264
265
266
267
268
269
270
271
272
273
274
275
276
277
278
279
280
281
282
283
284
285
286
287
288
289
290
291
292
293
294
295
296
297
298
299
300
301
302
303
304
305
306
307
308
309
310
311
312
313
314
315
316
317
318
319
320
321
322
323
324
325
326
327
328
329
330
331
332
333
334
335
336
337
338
339
340
341
342
343
344
345
346
347
348
349
350
351
352
353
354
355
356
357
358
359
360
361
362
363
364
365
366
367
368
369
370
371
372
373
374
375
376
377
378
379
380
381
382
383
384
385
386
387
388
389
390
391
392
393
394
395
396
397
398
399
400
401
402
403
404
405
406
407
408
409
410
411
412
413
414
415
416
417
418
419
420
421
422
423
424
425
426
427
428
429
430
431
432
433
434
435
436
437
438
439
440
441
442
443
444
445
446
447
448
449
450
451
452
453
454
455
456
457
458
459
460
461
462
463
464
465
466
467
468
469
470
471
472
473
474
475
476
477
478
479
480
481
482
483
484
485
486
487
488
489
490
491
492
493
494
495
496
497
498
499
</DataArray>
<DataArray NumberOfComponents='1' type='Int8' Name='IsActive' format='ascii'>
1
1
1
1
1
1
1
1
1
1
1
1
1
1
1
1
1
1
1
1
1
1
1
1
1
1
1
1
1
1
1
1
1
1
1
1
1
1
1
1
1
1
1
1
1
1
1
1
1
1
1
1
1
1
1
1
1
1
1
1
1
1
1
1
1
1
1
1
1
1
1
1
1
1
1
1
1
1
1
1
1
1
1
1
1
1
1
1
1
1
1
1
1
1
1
1
1
1
1
1
1
1
1
1
1
1
1
1
1
1
1
1
1
1
1
1
1
1
1
1
1
1
1
1
1
1
1
1
1
1
1
1
1
1
1
1
1
1
1
1
1
1
1
1
1
1
1
1
1
1
1
1
1
1
1
1
1
1
1
1
1
1
1
1
1
1
1
1
1
1
1
1
1
1
1
1
1
1
1
1
1
1
1
1
1
1
1
1
1
1
1
1
1
1
1
1
1
1
1
1
1
1
1
1
1
1
1
1
1
1
1
1
1
1
1
1
1
1
1
1
1
1
1
1
1
1
1
1
1
1
1
1
1
1
1
1
1
1
1
1
1
1
1
1
1
1
1
1
1
1
1
1
1
1
1
1
1
1
1
1
1
1
1
1
1
1
1
1
1
1
1
1
1
1
1
1
1
1
1
1
1
1
1
1
1
1
1
1
1
1
1
1
1
1
1
1
1
1
1
1
1
1
1
1
1
1
1
1
1
1
1
1
1
1
1
1
1
1
1
1
1
1
1
1
1
1
1
1
1
1
1
1
1
1
1
1
1
1
1
1
1
1
1
1
1
1
1
1
1
1
1
1
1
1
1
1
1
1
1
1
1
1
1
1
1
1
1
1
1
1
1
1
1
1
1
1
1
1
1
1
1
1
1
1
1
1
1
1
1
1
1
1
1
1
1
1
1
1
1
1
1
1
1
1
1
1
1
1
1
1
1
1
1
1
1
1
1
1
1
1
1
1
1
1
1
1
1
1
1
1
1
1
1
1
1
1
1
1
1
1
1
1
1
1
1
1
1
1
1
1
1
1
1
1
1
1
1
1
1
1
1
1
1
1
1
1
1
1
1
1
1
1
1
1
1
1
1
1
1
1
1
1
1
1
1
1
1
1
1
1
1
1
1
1
1
1
1
1
1
1
</DataArray>
<DataArray NumberOfComponents='1' type='Int32' Name='ParticleTetID' format='ascii'>
21187
5031
9775
6431
19881
19476
11606
6735
21187
5060
5809
4604
15428
1676
17715
12284
12047
638
11827
15849
17432
14276
16372
9746
18313
22635
15437
13956
197
219
2834
6968
14962
10462
12031
1661
10542
11781
9516
11101
5781
938
1691
18841
2837
13282
681
22974
2315
10605
6990
13339
889
197
2270
2775
13861
10850
17253
6936
6983
14046
9851
19049
2479
9142
21955
12283
1175
11780
6594
3815
13437
6994
1440
11120
10616
10470
2096
16550
6121
3030
17868
12987
19881
3422
3929
4111
14591
5322
827
12285
2833
5809
15095
3384
24122
6359
5989
381
8132
12028
8668
3810
3698
11650
13169
12105
2006
11169
5104
2273
19820
7355
5511
1256
24257
21064
7903
7464
11339
21945
2312
1215
10606
20607
8863
10605
10883
8095
10910
11413
20238
494
9408
12056
9311
12499
9749
5762
2079
1255
2785
23803
18962
3928
9657
436
20929
1345
5926
13001
17431
20958
2350
9780
9674
11389
3386
12872
10553
3588
18424
6041
667
10553
9023
19054
6936
9638
9781
8598
22975
4807
7386
18004
10690
10413
10553
22635
3033
5990
525
2184
9588
14806
14863
8036
1069
10352
6689
9084
2581
10560
974
19866
19899
3067
13308
9013
22978
4098
19835
5215
2705
19899
9164
8662
15847
5742
2833
2097
21067
17253
2444
12107
9384
10616
17986
4371
19878
16808
4911
2081
22634
21446
10418
12885
9659
7293
8905
1441
21203
16837
8320
7979
9227
12973
9529
1823
681
291
9300
9221
18965
15439
1652
9746
15159
12345
921
2834
11725
2187
17252
19
7445
7915
11969
3189
9115
812
5105
22632
21210
11778
13463
19217
9228
9236
12736
21796
15833
7241
15111
1072
7266
1973
2908
5340
6994
20242
2443
2315
9401
6621
8923
9884
4926
6440
5979
14766
22651
2270
21147
1652
15848
5090
9515
9146
11614
8507
8985
22652
3171
5954
5033
7983
4911
17870
14557
5777
7986
4328
15848
11414
9084
938
17255
16548
1255
11650
16213
9851
16161
2834
11144
4045
12105
11488
16254
1064
5791
21468
2697
23106
10777
1650
13357
22978
436
15439
5926
9858
2303
9408
16056
6433
7500
9455
5676
2443
7921
7352
12008
3916
9705
2905
5979
5665
22979
15847
2147
15814
4604
7710
3920
7217
6058
18365
11947
15428
1808
4927
17433
15437
16222
15897
9293
2311
11782
5926
15915
8914
2276
11728
4344
2833
2387
2452
13010
15370
1811
7241
11762
2697
8085
9899
9353
11378
2094
7804
6563
9899
11678
2433
16203
5102
923
23805
9345
8131
18022
7906
15832
1417
9386
6683
15431
15832
6402
557
1425
3034
9309
7500
5682
20161
14586
22635
7338
9617
22650
6851
2276
13281
9221
9226
17360
13461
15851
6638
22651
5104
11387
12056
5207
1175
17255
2699
2683
5926
18373
11154
23002
2479
21403
9224
5102
7275
5000
5990
2074
9447
13267
18818
4035
13956
1455
13306
197
5691
9897
9687
6167
1175
936
15349
19049
3913
6155
15087
13446
19650
1832
15814
11623
1831
16034
9509
8146
641
9858
9642
11506
14586
6755
11759
6683
14085
</DataArray>
<DataArray NumberOfComponents='3' type='Float32' Name='vels' format='ascii'>
1.568470 0.078791 -0.000861
2.108387 -0.027558 0.003684
0.173767 0.052726 -0.005420
0.024100 0.003908 -0.001677
2.027216 0.136059 0.000239
0.469746 0.098199 -0.004020
1.990240 0.067554 0.000403
1.352009 0.242768 -0.000197
1.562073 0.076150 -0.001426
0.621044 0.098633 -0.000565
1.612700 -0.192940 0.000128
0.310192 -0.091869 -0.001702
0.228677 0.001166 -0.002806
1.797103 -0.193657 -0.010334
1.565278 0.137596 -0.000724
1.863800 -1.364362 0.000581
2.115566 -0.072776 0.000223
2.131749 -0.203954 -0.000288
0.184977 0.027503 -0.001262
2.128360 0.650377 -0.000572
1.876346 1.005586 0.000428
1.322257 -0.277292 -0.002859
2.025827 -0.043787 -0.001007
1.695648 0.471527 -0.001580
1.943675 -1.372137 0.000434
2.121718 -0.168314 -0.000167
1.811019 0.006927 -0.004991
2.216773 0.256900 -0.000199
0.592043 0.137776 0.000758
1.687532 0.411462 -0.002635
2.191598 -0.111888 0.002272
0.656875 -0.048903 -0.000511
2.067482 0.460217 -0.002504
2.156563 0.038735 0.000570
0.052266 0.015186 0.001340
1.848946 0.072305 -0.001528
1.752780 0.193938 -0.000669
2.212413 0.600489 -0.000653
1.761231 0.057367 -0.000020
1.312795 -0.164235 -0.000190
1.616052 -0.372749 0.001057
0.259571 -0.026987 0.001028
0.386245 -0.046238 -0.000490
2.319060 -0.590101 -0.000344
2.024343 -0.101992 0.000162
0.095761 -0.005012 0.001376
0.816111 -0.203793 0.000251
1.989899 -0.120353 0.000714
2.076903 -0.874614 0.000203
1.886783 0.056632 0.000711
2.143216 -0.899697 0.000049
1.329607 0.135803 -0.000493
2.238282 0.114207 -0.002173
1.217733 0.273249 0.000636
0.002283 -0.005713 0.007089
1.709347 -0.075691 -0.000862
1.568621 0.331109 0.000022
0.004271 0.000067 0.002282
2.021025 -1.152174 0.000131
2.065175 -0.513032 -0.001113
0.162159 -0.008933 0.000449
2.315834 -0.337094 0.000796
1.725829 0.466008 -0.001729
1.807165 0.022374 -0.000876
1.655732 0.090536 -0.001189
1.119811 0.127953 0.000434
1.895010 -0.083976 0.000477
1.691300 -1.221160 -0.000300
1.810485 -0.339470 -0.000549
2.244613 0.362286 0.000774
1.424328 -0.251815 -0.001453
0.339387 -0.006064 0.004198
2.125873 0.526925 -0.001474
2.306610 -0.984924 0.000866
1.166016 0.080385 -0.000105
0.116906 -0.000102 0.000139
2.025292 0.038436 -0.000279
2.025109 0.067158 -0.000490
2.156301 -0.123571 -0.000933
2.228770 -0.159585 0.000276
0.029001 -0.004693 -0.000956
2.020430 -0.199842 -0.000505
2.117279 -0.087725 0.000291
2.199843 0.009989 -0.001682
2.127308 0.116588 -0.000193
0.365586 -0.036915 -0.001229
1.684236 0.432576 0.001216
2.035202 -0.008253 0.001867
2.104537 0.193573 0.001028
2.121074 0.242153 -0.001040
1.570793 0.128107 -0.000295
1.923470 -1.367561 0.000429
2.112118 -0.113016 0.000437
1.564052 -0.187989 0.000439
2.315464 -0.066957 0.003226
1.216568 0.061489 -0.001192
0.772061 0.011779 -0.000976
0.260661 0.041956 -0.001666
1.559310 0.289804 0.000173
1.519997 -0.270109 0.001123
1.930252 -0.185753 -0.001199
0.718540 0.215488 0.005232
1.949189 0.343505 0.001286
-0.002196 -0.000008 0.001710
-0.005852 0.004793 -0.006465
1.693654 0.036829 -0.000274
0.356154 -0.000896 0.002867
1.974350 0.993789 0.001144
-0.007814 -0.001109 -0.003119
2.129762 -0.172137 0.003370
2.122610 0.293506 0.000946
0.001527 -0.001385 0.001680
1.207411 0.279070 -0.000750
1.245132 -0.009422 0.003943
1.623537 0.150545 -0.000861
1.563406 0.174709 -0.002251
2.084188 -0.087958 0.000007
1.686597 -0.067258 0.001088
0.263337 0.075432 -0.002365
1.185083 0.013785 0.004669
1.078173 -0.291794 0.002540
1.974853 -0.136075 0.000133
1.882594 -0.743291 -0.000527
2.044195 0.407445 -0.000158
2.107709 0.032887 0.000466
1.866280 0.477471 0.000316
1.582313 -0.234485 -0.000023
1.902869 0.049948 0.000820
2.086170 0.288493 0.001121
1.370239 -0.263570 0.000120
0.013585 -0.002227 -0.001078
0.573615 -0.001150 0.001256
2.115369 -1.100520 -0.000794
2.073409 0.232504 0.000873
1.922282 -0.049338 0.002822
2.124012 -0.090960 -0.000706
1.998752 -0.059860 -0.003901
2.266744 -0.061757 0.000474
1.795528 0.499507 -0.000129
0.123336 -0.000183 -0.000342
2.059458 0.041681 -0.003121
1.466683 0.136299 0.001365
1.740679 -0.066012 -0.000948
1.987262 1.213719 0.000615
2.024637 -0.169865 0.001562
2.019862 0.515961 0.001178
1.951599 -0.513845 0.000009
1.911427 0.103296 -0.001045
1.576992 -0.114750 0.000397
1.618339 -0.078759 -0.002464
2.043396 -0.266129 -0.003906
1.946023 0.305962 -0.000200
1.930554 1.099408 0.000141
1.891662 0.065155 0.000335
1.871486 0.379867 0.000050
3.175941 0.835673 0.002085
0.833864 -0.237964 0.000281
0.325999 0.000072 -0.000395
1.289872 0.077455 -0.006324
0.324693 0.002488 -0.002857
1.723198 -0.002496 -0.000076
0.014553 0.004285 -0.000991
2.502035 0.082431 0.000005
2.370912 0.428346 0.009614
0.920264 -0.188628 -0.005789
2.004855 0.030331 0.000346
1.900895 0.294023 0.003362
1.941576 0.023581 0.004618
2.079401 -0.522263 -0.000150
0.658319 -0.188575 0.000695
0.662769 0.191832 -0.000805
1.571073 -0.284979 0.002452
2.070139 -0.078522 -0.000283
0.703576 0.071036 -0.004612
1.862662 -0.036502 -0.001432
2.176151 0.026449 0.000704
-0.003977 0.002806 0.000142
2.079243 0.048412 -0.002314
2.072264 0.013762 -0.000050
2.123624 -0.169465 -0.000634
2.059012 -0.207476 0.000284
2.303775 0.439525 0.000035
1.754329 -0.130621 0.000426
1.950535 0.316806 0.002214
2.327476 -0.621176 0.003116
2.117784 -0.722403 0.000010
1.474157 -0.096395 -0.000180
1.193158 0.343571 -0.002849
0.136332 -0.000364 0.000443
0.014227 0.002360 -0.001795
0.803141 0.135267 0.000189
1.996943 -0.094560 -0.000257
1.795195 0.468848 -0.001007
2.024073 0.030942 -0.000418
1.148060 0.263750 0.002282
1.959317 0.038622 -0.000027
1.994052 1.198040 -0.000223
1.737501 -0.405113 -0.000751
1.894628 -0.139297 -0.000745
1.774299 -0.342465 0.000140
1.923385 -0.102656 0.000330
1.932272 0.209618 -0.000549
0.560866 0.129825 -0.000521
1.531171 -0.130040 -0.000694
1.850863 -0.456137 -0.000883
1.979891 1.173790 -0.000616
0.595309 -0.114460 -0.000159
0.401851 0.066131 -0.000618
2.054285 0.636780 -0.000609
0.419656 -0.002918 0.000645
2.129151 -0.080654 0.000198
2.160573 -0.135200 -0.000930
2.524413 -0.098800 0.000922
2.043248 -1.161008 -0.000022