<VTKFile type='UnstructuredGrid' version='1.0' byte_order='LittleEndian' header_type='UInt64'>
<UnstructuredGrid>
<Piece NumberOfCells='500' NumberOfPoints='500'>
<Points>
<DataArray NumberOfComponents='3' type='Float32' Name='Position' format='ascii'>
566.764427 185.844884 -4.562885
1029.059357 188.209033 -16.808274
-174.466830 369.179061 -6.215859
649.131047 259.237707 -6.407156
1029.278797 232.304881 -20.074967
-136.797604 111.606146 -2.258814
1029.253611 152.748402 -21.930599
1001.656302 233.802976 -5.696368
569.464090 188.844618 -4.017757
2.222869 272.369336 -5.167917
1029.136333 154.676584 -29.201451
89.701503 177.330311 -28.239493
-43.162805 218.027520 -6.306784
617.862648 120.760183 -4.427873
604.367981 216.864371 -4.391702
1029.359902 252.147987 -15.006536
977.413095 175.693661 -6.356648
1029.087137 262.783777 -11.868301
-59.869821 302.118142 -7.356809
1029.193912 138.980634 -19.474711
1029.180406 166.324271 -12.000646
549.524532 36.119366 -4.617229
1029.076102 228.539705 -26.569211
460.844592 396.369512 -3.808100
1029.103216 249.678682 -17.080837
1028.990499 208.533237 -16.447437
1029.196326 188.604010 -17.100767
1029.136178 186.426719 -8.694585
136.591310 209.824230 -37.576734
996.982584 271.808734 -7.641147
638.865256 215.403052 -12.201254
440.542996 56.024288 -1.346437
1029.231420 262.000992 -8.732897
1029.083701 205.611464 -10.271489
422.306524 386.274159 -3.543799
932.211652 188.981975 -7.844189
1029.074164 155.183680 -27.112406
1029.321351 153.281068 -16.377951
500.053266 162.261398 -31.507292
1028.982668 142.206514 -26.628187
1012.051105 136.288605 -6.122562
633.691941 122.916450 -2.866619
360.143371 39.486988 -34.178924
1029.147816 142.387907 -29.713177
792.070790 213.320586 -17.669941
-268.429636 218.195766 -37.653083
93.568090 185.708953 -35.165136
947.379503 214.312452 -9.143080
1029.339088 256.934836 -22.392138
688.304244 189.275882 -6.824785
1029.096555 251.048780 -9.627166
771.205790 243.741727 -5.707309
1029.044092 190.888146 -17.070591
272.297078 281.508458 -37.320154
-491.944030 186.775387 -2.115077
1029.140656 185.673421 -7.749712
515.723354 314.572105 -4.547588
-193.632586 181.444746 -31.118699
1029.281029 251.617953 -16.541149
672.701409 21.444106 -11.708537
354.989907 40.909366 -30.415023
1029.144067 251.298274 -9.433218
714.217265 362.734842 -8.251084
906.933122 186.417396 -10.482815
1029.099325 207.296483 -29.207397
224.301376 206.809543 -37.457884
550.919121 148.104536 -36.504597
1029.003818 260.121252 -19.353480
1029.219105 141.565174 -7.227381
1029.030335 140.847806 -10.327024
1029.210581 151.177371 -10.058554
-185.624680 180.946990 -34.653337
422.743582 386.163063 -3.664093
1029.370072 249.889205 -17.917543
552.439005 209.384258 -3.811038
572.322024 209.812727 -30.961486
935.614878 214.605125 -29.056507
1029.088630 226.583231 -26.791639
664.735986 191.794369 -7.957849
674.524484 182.399267 -13.266770
729.728153 80.660830 -6.130368
1029.075219 199.084609 -13.594524
1029.306689 250.607125 -21.757990
1029.275264 140.263570 -17.033113
1029.110714 228.986199 -22.802082
620.188436 121.935526 -4.276787
1029.118126 264.933374 -10.231840
1029.150350 191.275146 -16.086105
1029.304192 140.303527 -20.675616
1029.296586 152.742705 -21.728450
378.235811 250.172344 -27.838550
1029.317875 251.504023 -16.457303
1029.142010 196.584875 -14.344229
1029.292726 155.217574 -29.018318
1029.213633 188.409014 -16.858498
484.392099 219.288909 -1.770765
310.304998 167.067460 -2.161862
895.333506 235.539693 -5.961945
1029.337316 249.376128 -23.538960
1029.006290 140.497051 -6.606818
1029.101994 154.322595 -29.456101
101.177427 294.809912 -11.989251
1029.023898 231.951962 -20.916878
-432.524462 176.871585 -26.663301
-360.444312 250.148325 -19.998251
1029.244989 230.300666 -9.687840
1029.187334 191.618517 -20.456878
1029.318341 165.992030 -17.959244
-280.982872 262.522511 -19.949400
1028.977543 140.299234 -17.001177
1029.189046 140.141349 -19.420439
-501.600196 192.505716 -9.486257
307.773560 330.225490 -3.322171
1029.088515 191.145182 -20.070877
1029.119364 214.611647 -7.296110
1029.162892 231.219450 -28.952026
439.654459 74.198168 -20.804832
1029.069190 250.884586 -9.429735
-161.775070 375.479744 -5.699717
1029.161448 191.361488 -22.229912
113.494302 168.336432 -35.824421
1003.124422 175.657328 -4.753680
1029.203531 259.133438 -14.979347
1029.386622 140.349597 -17.517165
823.098087 212.685268 -8.839563
122.308828 222.314860 -33.717571
377.639320 41.467018 -2.348081
652.853673 213.445707 -7.122033
1029.257480 229.715106 -21.899225
1029.221177 141.549552 -28.168380
312.214140 91.215967 -4.776518
-193.378512 214.447440 -5.478039
1029.184340 250.622315 -9.354484
1029.115912 138.104862 -11.754595
1029.020587 188.147850 -23.823336
1029.259073 166.069571 -28.080659
1029.121508 190.466885 -8.136797
1029.124786 206.293152 -17.948811
422.237684 386.356569 -3.913509
-197.428598 213.071853 -4.051520
1028.976683 198.275371 -20.143932
1029.216848 231.067388 -27.441933
637.233107 156.785298 -36.488894
1029.134359 189.002731 -8.993922
1028.982673 228.031097 -11.093356
814.893740 319.863265 -6.482011
630.806978 12.006247 -20.216671
1029.064718 230.128527 -9.890916
1029.261154 171.158954 -29.184869
381.472231 52.266270 -10.001146
1029.152980 136.636137 -10.985803
937.906059 272.016266 -6.031762
1029.072949 189.720784 -13.672791
1029.126679 229.823613 -11.368067
1029.116635 266.379400 -22.171789
506.851921 369.235137 -11.649289
1029.194718 140.926378 -10.790143
-103.396746 180.018870 -31.654897
464.493100 84.295614 -2.288895
485.921149 205.650089 -5.547569
800.621329 219.546375 -12.363695
349.149532 373.250811 -13.303283
1029.165082 249.277036 -18.436584
1029.236544 229.448986 -17.039859
574.090607 106.498711 -1.576322
1029.046234 203.253687 -14.894425
1029.162656 250.509853 -9.214404
333.995787 96.396321 -26.792309
523.483253 3.944129 -13.217513
620.681154 11.971994 -12.553548
-4.479368 350.634516 -18.751431
1028.993105 141.600352 -27.791848
1029.312762 229.305865 -15.668280
718.230603 223.980755 -4.378787
1029.207264 189.143456 -11.935037
962.347087 180.906014 -12.222887
-521.897586 274.689805 -37.151957
1029.232534 189.628657 -19.390733
867.040360 189.773429 -9.372899
1029.259166 229.986926 -17.220021
1029.103068 198.247599 -27.320136
1028.989402 252.799752 -25.582654
1029.160703 187.417509 -7.500706
1029.086343 261.955222 -10.171866
90.168606 179.561889 -26.184487
1029.196213 265.861447 -23.563606
1029.060599 250.741090 -23.158830
1028.978047 263.287548 -11.028804
-121.322133 173.522224 -20.021371
-161.934861 311.573759 -3.584395
1029.184939 230.710144 -21.207296
1029.139103 188.001014 -24.091368
1029.296602 165.116357 -11.684768
771.182512 212.663064 -28.661125
306.393425 312.304720 -2.682676
1029.246652 152.097065 -21.274371
1029.238727 166.185289 -18.220476
642.928941 13.042849 -12.431795
1029.317852 166.310171 -11.196974
1029.074538 141.753036 -28.112455
1028.978325 226.681346 -19.098767
1029.070636 229.001683 -26.946571
302.539886 308.515324 -34.849861
1029.076318 154.088305 -26.648681
843.978512 70.990224 -7.472613
1029.134247 165.425647 -17.916420
556.099637 58.690900 -4.044675
1028.993193 251.027087 -9.360745
1029.191202 138.906774 -12.100933
-142.676656 179.359998 -2.716695
790.843373 212.671420 -15.948524
1028.987540 207.207378 -15.083185
1029.256612 249.121303 -18.632310
1029.083419 261.565138 -18.628778
1029.186294 141.644426 -26.875536
1029.125480 163.915666 -20.865933
1029.067550 187.903334 -11.437351
764.009418 212.893312 -28.355453
1028.977323 191.701105 -10.560304
23.211577 94.967559 -34.516163
1029.130325 227.908705 -11.363294
872.024876 177.315647 -23.740266
185.478456 170.377950 -33.898938
1028.994581 191.539402 -20.807746
1029.089074 228.582486 -11.134421
1029.032689 139.337093 -11.491075
812.405089 181.269700 -26.462954
372.620258 58.008078 -18.904551
705.103303 32.131153 -20.217688
1029.118109 188.779216 -7.828990
1029.058995 154.448558 -27.720059
431.909000 254.555876 0.000849
499.951923 215.349587 -35.629711
1029.130825 162.909080 -15.085360
1029.287445 139.578995 -9.591735
362.420699 385.027607 -6.479130
1029.138655 191.579951 -20.417899
661.312210 220.481318 -25.765680
676.628595 180.711103 -19.886212
1029.215009 263.230013 -9.648705
628.770264 45.384215 -28.604990
991.637701 188.703610 -7.219881
1029.114565 185.116480 -26.917102
1029.027159 188.449629 -8.741109
1029.088616 227.990706 -18.525192
1028.995233 188.013687 -23.848952
704.392830 191.427014 -30.022441
1028.976192 263.358560 -7.415076
1026.192279 138.344076 -6.538653
57.465637 191.271173 -34.143621
1029.056723 204.324582 -9.094241
1028.993735 205.652109 -16.980837
1029.000713 266.680231 -14.841078
1029.019230 264.554280 -17.341043
1029.020443 260.195748 -17.082613
540.015882 158.368979 -6.041436
1029.136234 190.187559 -24.030354
-45.638259 387.495219 -30.489519
5.324450 278.955519 -36.854874
628.617666 184.246494 -5.817746
316.757752 181.468848 -17.948101
570.207561 219.725867 -3.818774
1028.992364 140.724015 -18.226469
1009.947701 201.041870 -15.449538
1029.288175 250.532170 -11.240318
1028.982169 140.578835 -8.523235
253.779874 198.545773 -36.892532
-499.057406 188.958890 -25.075210
1028.991480 184.793799 -26.995024
-81.300415 286.493371 -4.167986
1029.263509 251.378450 -21.648380
-405.826316 125.970348 -35.940955
1029.055936 181.494904 -18.997324
311.362561 150.466668 -10.540629
1029.168282 189.604127 -16.148881
197.684050 188.039483 -26.229053
1029.060040 188.469406 -26.483053
1029.156936 166.796368 -19.504463
1029.062033 251.332961 -17.754174
855.244292 219.133069 -19.439337
1029.058731 251.612451 -21.507725
1029.209896 251.530546 -18.765869
1029.226357 141.141672 -26.962504
1029.035831 258.818714 -21.723534
1029.137454 191.840832 -7.148699
166.413787 173.413174 -33.797131
1028.992617 143.275617 -33.765066
277.705950 335.813688 -3.964938
1029.052570 231.238678 -23.593649
1028.981230 228.890302 -26.848342
824.810170 301.166842 -6.180781
1029.019086 186.784368 -8.920433
1029.062089 229.606706 -11.842059
-493.068736 185.940482 -3.937948
197.436329 161.445226 -34.012419
876.911088 188.645260 -30.088994
1029.055737 139.105929 -11.640209
531.828331 72.718435 -32.099381
1029.084872 192.212440 -20.238293
-215.447229 212.494662 -5.111051
322.962880 212.080911 -12.741185
1028.996143 151.715862 -17.273462
1028.994285 231.174448 -6.028807
411.591621 245.039275 -3.410562
584.674704 214.600110 -4.579173
1029.256785 153.702561 -22.613375
1029.274629 189.295571 -19.419725
1028.980026 266.824802 -15.162600
292.001232 145.737362 -33.392789
1029.096721 252.600993 -23.946544
1029.235200 153.879772 -27.568629
-250.040662 212.912894 -36.298029
638.934429 365.670250 -23.217955
1029.273908 151.732683 -17.452964
1029.014351 139.407205 -11.818104
-138.015183 216.234060 -4.516541
1028.984348 184.826144 -32.941579
621.921177 122.962531 -3.679385
1028.980649 249.835231 -21.175183
812.365439 188.610774 -11.261228
1029.188393 230.634547 -28.444128
1029.080799 230.197874 -9.454699
651.913564 214.552429 -30.810542
722.938181 357.628793 -7.442131
656.442130 132.072956 -28.903232
1029.008500 206.564596 -15.792315
560.102081 144.158869 -2.378672
1029.067852 141.603446 -27.818469
1029.069269 165.176413 -18.524279
1029.133526 191.427176 -10.540003
309.039564 146.485343 -2.637075
-1.192657 212.714541 -5.528209
625.490348 8.107326 -25.448883
1029.220334 140.786220 -22.054353
296.303773 222.736395 -37.777444
1029.175277 141.288491 -25.554240
466.954786 94.034123 -31.793076
974.741900 242.409715 -34.662441
643.664918 122.818281 -4.791716
1029.228811 229.056026 -21.423484
1029.263211 229.727649 -8.828450
351.896283 232.408065 -32.861791
1029.255636 140.847097 -10.347196
1029.144526 262.952322 -22.063480
334.156572 36.627133 -34.069681
1029.093018 189.431262 -22.359625
263.711367 286.587883 -2.488779
1029.246426 229.393185 -16.587050
732.575487 174.726310 -24.997631
1029.093379 191.825392 -10.545870
1029.146176 187.848913 -9.040993
1029.240783 141.515258 -27.379984
-228.731829 356.149508 -6.023010
1029.025452 191.423095 -15.451683
373.104729 370.029106 -5.515979
-151.435473 219.616850 -26.175323
589.637879 5.338808 -10.314067
1029.083022 262.773429 -19.497108
1029.086616 250.371744 -7.973811
1029.037398 262.781573 -26.167907
1029.137774 227.226450 -10.712844
1029.144133 141.824809 -12.094427
1028.988883 264.995240 -7.280992
1029.072346 230.843770 -24.585391
289.124873 69.306395 -32.352409
630.361745 9.074469 -11.752857
792.664009 175.385932 -22.644890
383.697868 264.338052 -20.023127
-133.528389 108.616471 -25.977545
708.373859 131.636703 -6.017183
1028.999467 189.009184 -23.377562
-50.379750 214.606004 -5.688718
1029.220458 185.847851 -11.251454
1029.284457 252.216365 -23.460776
1029.129728 164.701498 -20.667179
1029.238084 189.379812 -19.425016
527.648642 334.506523 -12.563985
1028.998408 152.824558 -6.281295
1029.029557 189.622144 -9.059488
1029.097936 262.061277 -16.866182
1029.292222 139.341657 -20.537809
1029.028994 140.404660 -8.938870
712.662082 36.236156 -6.829040
1029.005844 140.255329 -9.204981
-500.566414 193.102848 -15.482259
422.364659 386.234165 -5.736371
1029.087163 227.049554 -11.271518
712.776105 187.968655 -19.197234
832.257190 327.722142 -18.160503
-5.913227 21.552038 -12.117871
1029.284670 252.620977 -25.589771
-293.131334 212.663770 -37.773940
1029.146218 191.360374 -20.366622
1029.105913 190.489401 -8.928432
1028.984297 152.167014 -15.410153
500.974593 202.567409 -34.330668
1028.977495 139.629717 -6.673073
101.977292 293.973130 -34.748110
1029.217982 189.239624 -24.197824
-141.442028 176.849222 -5.722163
793.096113 212.846421 -9.196071
-222.511839 40.929404 -26.262944
1029.331110 152.525238 -20.330589
123.479572 239.678723 -36.092770
1029.187656 251.079710 -22.841616
1029.318670 140.222168 -7.695200
504.805953 152.178252 -5.995687
1029.189180 152.203793 -9.786901
895.296266 186.624443 -10.485696
1029.020630 165.105675 -19.151886
1029.009679 191.458190 -6.372217
1029.190473 154.549839 -27.821762
1029.119299 138.490448 -7.169665
-115.469199 387.692859 -12.610038
1028.992859 189.529076 -21.214293
1029.200837 141.506837 -28.207214
1029.122687 189.627835 -12.980992
1029.110689 230.414989 -7.779148
311.866898 150.371454 -10.126645
1029.067094 190.358882 -21.601804
1029.149717 228.931587 -26.989552
335.574565 33.240076 -35.541714
562.790192 350.905564 -6.547626
1029.126705 199.221430 -20.196635
1028.978204 191.616251 -5.973972
1029.154759 191.002642 -23.581673
1029.118563 166.532241 -28.691753
680.625885 227.091973 -4.485208
1029.114841 139.297521 -11.567960
411.558032 245.110662 -3.276845
1029.136270 191.163161 -23.318089
629.122463 9.712159 -10.677638
1029.105731 205.069380 -15.635904
1028.991614 151.329544 -19.248305
-500.852440 193.305362 -16.001238
365.209243 66.541394 -34.410589
1029.120078 187.702432 -9.310782
1029.163817 184.148452 -21.974278
1029.312471 248.234907 -9.873754
524.720411 105.315712 -33.502674
1029.328978 136.843542 -18.881703
1029.094399 248.978200 -25.149447
1029.222021 229.310936 -11.098716
1029.172426 140.413768 -21.018412
995.461001 178.944256 -16.776082
1029.118423 167.132526 -29.081801
1029.032436 162.086172 -8.090933
1029.041121 142.217793 -6.243565
1029.236015 251.014534 -17.909152
374.175025 253.470879 -34.712395
530.428288 229.617624 -1.757538
1028.977966 139.590846 -10.513834
1029.013381 155.959542 -27.775785
657.610507 178.182184 -26.428526
376.989331 254.425109 -33.615431
1029.030631 206.195502 -29.210784
728.402242 173.051249 -6.888362
1029.122752 191.332256 -15.803695
1029.022018 152.098673 -9.721617
1028.979961 185.456998 -7.675500
50.507192 142.722097 -31.584729
1029.034602 250.235039 -24.035320
853.018586 181.432456 -12.081673
372.583433 59.776160 -12.460715
-176.304034 219.221733 -6.137219
1029.121923 139.486113 -10.572183
1028.993989 138.911566 -6.091481
1029.016906 187.725508 -9.274138
704.179730 219.777020 -27.847109
1029.281845 164.317919 -10.568704
132.407675 211.180475 -37.665274
744.560411 313.145670 -5.987031
121.834052 237.112281 -35.894983
564.742175 6.055151 -8.729228
400.884835 273.474580 -5.355285
1029.080642 139.809185 -8.448109
552.442117 151.769179 -2.391933
1029.190996 251.339016 -24.093351
810.727002 212.879161 -8.340681
-93.642575 213.884071 -19.378917
139.629526 215.206346 -37.217517
1029.091622 188.026010 -8.426024
505.974159 119.545788 -1.511051
1029.233175 246.857364 -23.058501
680.778128 368.491717 -26.152499
1029.182799 226.565878 -26.855878
1029.101006 187.965896 -24.494495
1029.001557 265.025473 -24.043119
1029.035127 184.774956 -22.472807
1029.077783 191.459570 -6.368736
1029.147602 265.728428 -24.808093
1028.979811 266.614511 -21.884949
704.333105 366.559804 -23.893866
89.852189 178.465661 -26.256924
378.075462 7.721897 -0.963226
1029.072314 141.391280 -11.738849
696.007004 80.181784 -5.256133
1029.042814 142.222528 -5.287601
834.769393 293.518363 -6.748865
969.740197 215.054877 -17.864496
</DataArray>
</Points>
<PointData>
<DataArray NumberOfComponents='1' type='Int32' Name='ParticleType' format='ascii'>
1
1
1
1
1
1
1
1
1
1
1
1
1
1
1
1
1
1
1
1
1
1
1
1
1
1
1
1
1
1
1
1
1
1
1
1
1
1
1
1
1
1
1
1
1
1
1
1
1
1
1
1
1
1
1
1
1
1
1
1
1
1
1
1
1
1
1
1
1
1
1
1
1
1
1
1
1
1
1
1
1
1
1
1
1
1
1
1
1
1
1
1
1
1
1
1
1
1
1
1
1
1
1
1
1
1
1
1
1
1
1
1
1
1
1
1
1
1
1
1
1
1
1
1
1
1
1
1
1
1
1
1
1
1
1
1
1
1
1
1
1
1
1
1
1
1
1
1
1
1
1
1
1
1
1
1
1
1
1
1
1
1
1
1
1
1
1
1
1
1
1
1
1
1
1
1
1
1
1
1
1
1
1
1
1
1
1
1
1
1
1
1
1
1
1
1
1
1
1
1
1
1
1
1
1
1
1
1
1
1
1
1
1
1
1
1
1
1
1
1
1
1
1
1
1
1
1
1
1
1
1
1
1
1
1
1
1
1
1
1
1
1
1
1
1
1
1
1
1
1
1
1
1
1
1
1
1
1
1
1
1
1
1
1
1
1
1
1
1
1
1
1
1
1
1
1
1
1
1
1
1
1
1
1
1
1
1
1
1
1
1
1
1
1
1
1
1
1
1
1
1
1
1
1
1
1
1
1
1
1
1
1
1
1
1
1
1
1
1
1
1
1
1
1
1
1
1
1
1
1
1
1
1
1
1
1
1
1
1
1
1
1
1
1
1
1
1
1
1
1
1
1
1
1
1
1
1
1
1
1
1
1
1
1
1
1
1
1
1
1
1
1
1
1
1
1
1
1
1
1
1
1
1
1
1
1
1
1
1
1
1
1
1
1
1
1
1
1
1
1
1
1
1
1
1
1
1
1
1
1
1
1
1
1
1
1
1
1
1
1
1
1
1
1
1
1
1
1
1
1
1
1
1
1
1
1
1
1
1
1
1
1
1
1
1
1
1
1
1
1
1
1
1
1
1
1
1
1
1
1
1
1
1
1
1
1
1
1
1
1
1
1
1
1
1
1
1
1
1
1
1
1
1
1
1
1
1
1
1
1
1
1
1
1
1
1
1
1
1
1
</DataArray>
<DataArray NumberOfComponents='1' type='Int32' Name='ParticleID' format='ascii'>
0
1
2
3
4
5
6
7
8
9
10
11
12
13
14
15
16
17
18
19
20
21
22
23
24
25
26
27
28
29
30
31
32
33
34
35
36
37
38
39
40
41
42
43
44
45
46
47
48
49
50
51
52
53
54
55
56
57
58
59
60
61
62
63
64
65
66
67
68
69
70
71
72
73
74
75
76
77
78
79
80
81
82
83
84
85
86
87
88
89
90
91
92
93
94
95
96
97
98
99
100
101
102
103
104
105
106
107
108
109
110
111
112
113
114
115
116
117
118
119
120
121
122
123
124
125
126
127
128
129
130
131
132
133
134
135
136
137
138
139
140
141
142
143
144
145
146
147
148
149
150
151
152
153
154
155
156
157
158
159
160
161
162
163
164
165
166
167
168
169
170
171
172
173
174
175
176
177
178
179
180
181
182
183
184
185
186
187
188
189
190
191
192
193
194
195
196
197
198
199
200
201
202
203
204
205
206
207
208
209
210
211
212
213
214
215
216
217
218
219
220
221
222
223
224
225
226
227
228
229
230
231
232
233
234
235
236
237
238
239
240
241
242
243
244
245
246
247
248
249
250
251
252
253
254
255
256
257
258
259
260
261
262
263
264
265
266
267
268
269
270
271
272
273
274
275
276
277
278
279
280
281
282
283
284
285
286
287
288
289
290
291
292
293
294
295
296
297
298
299
300
301
302
303
304
305
306
307
308
309
310
311
312
313
314
315
316
317
318
319
320
321
322
323
324
325
326
327
328
329
330
331
332
333
334
335
336
337
338
339
340
341
342
343
344
345
346
347
348
349
350
351
352
353
354
355
356
357
358
359
360
361
362
363
364
365
366
367
368
369
370
371
372
373
374
375
376
377
378
379
380
381
382
383
384
385
386
387
388
389
390
391
392
393
394
395
396
397
398
399
400
401
402
403
404
405
406
407
408
409
410
411
412
413
414
415
416
417
418
419
420
421
422
423
424
425
426
427
428
429
430
431
432
433
434
435
436
437
438
439
440
441
442
443
444
445
446
447
448
449
450
451
452
453
454
455
456
457
458
459
460
461
462
463
464
465
466
467
468
469
470
471
472
473
474
475
476
477
478
479
480
481
482
483
484
485
486
487
488
489
490
491
492
493
494
495
496
497
498
499
</DataArray>
<DataArray NumberOfComponents='1' type='Int8' Name='IsActive' format='ascii'>
1
0
1
1
0
1
0
1
1
1
0
1
1
1
1
0
1
0
1
0
0
1
0
1
0
0
0
0
1
1
1
1
0
0
0
1
0
0
1
0
1
1
1
0
1
1
1
1
0
1
0
1
0
1
1
0
1
1
0
1
1
0
1
1
0
1
1
0
0
0
0
1
0
0
1
1
1
0
1
1
1
0
0
0
0
1
0
0
0
0
1
0
0
0
0
1
1
1
0
0
0
1
0
1
1
0
0
0
1
0
0
1
1
0
0
0
1
0
1
0
1
1
0
0
0
1
0
1
0
0
1
1
0
0
0
0
0
0
0
1
0
0
1
0
0
1
1
0
0
0
0
1
0
0
0
1
0
1
1
1
1
1
0
0
1
0
0
1
1
1
1
0
0
1
0
1
1
0
1
0
0
0
0
0
1
0
0
0
1
1
0
0
0
0
1
0
0
1
0
0
0
0
1
0
1
0
1
0
0
1
0
0
0
0
0
0
0
1
0
1
0
1
1
0
0
0
1
0
1
0
0
0
1
0
0
1
0
1
1
0
1
1
0
0
0
0
1
0
1
1
0
0
0
0
0
1
0
1
1
1
1
1
0
1
0
0
1
1
0
1
0
1
0
1
0
1
0
0
0
1
0
0
0
0
0
1
0
1
0
0
1
0
0
1
1
1
0
1
0
1
1
0
0
0
1
0
0
0
1
0
0
1
1
0
0
1
0
1
0
1
0
0
1
1
1
0
1
0
0
0
1
1
1
0
1
0
1
1
1
0
0
1
0
0
1
0
1
0
1
0
0
0
1
0
1
1
1
0
0
0
0
0
0
0
1
1
1
1
1
1
0
1
0
0
0
0
1
0
0
0
0
0
1
0
1
0
0
1
1
1
0
1
0
0
0
1
0
1
0
1
1
1
0
1
0
0
1
0
1
0
0
0
0
1
0
0
0
0
1
0
0
1
1
0
0
0
0
1
0
0
0
1
0
0
1
1
0
0
0
1
0
0
0
0
1
0
0
0
0
1
1
0
0
1
1
0
1
0
0
0
1
0
1
0
1
0
0
0
1
0
1
1
1
1
0
0
1
0
1
1
1
0
1
0
1
0
0
0
0
0
0
0
1
1
0
0
1
0
1
1
</DataArray>
<DataArray NumberOfComponents='1' type='Int32' Name='ParticleTetID' format='ascii'>
76537
-61515
13628
63883
-58962
11396
-66558
60679
73622
30476
-66561
98736
14509
66871
67412
-64917
60751
-68099
10731
-66554
-59783
71858
-58961
81758
-64916
-70586
-61515
-61512
45574
75749
62680
87720
-68099
-72204
-112396
59925
-66561
-66555
68215
-66557
75223
60356
47068
-66560
63043
9502
47896
67325
-64920
65307
-64914
69320
-61515
35279
19262
-61512
66368
7267
-64917
70222
47064
-64914
65561
67468
-72213
39111
69173
-64917
-66552
-66551
-66552
9305
-112396
-64916
61938
59720
59808
-58965
63149
63130
71749
-72207
-64920
-66554
-58961
72668
-68099
-61515
-66557
-66558
82417
-64917
-72207
-66561
-61515
51678
46566
71785
-64919
-66548
-66561
30155
-58962
3808
5065
-58955
-61518
-59786
6361
-66554
-66554
2273
29612
-61518
-70584
-58965
87804
-64914
13608
-61518
98544
73892
-64917
-66554
-62952
40066
-146594
62987
-58962
-66560
95750
7490
-64914
-66588
-61518
-59791
-61512
-72207
-112396
7490
-72210
-58965
58607
-61512
-58955
56755
63495
-58955
-59791
-156163
-66588
74018
-61515
-58955
-68105
67576
-66551
11570
51428
53894
63041
32458
-64916
-58958
72218
-72207
-64914
50952
61402
66892
21049
-66560
-58958
63018
-61511
77729
10690
-61514
61115
-58958
-72213
-64919
-61512
-68099
98736
-68105
-64919
-68099
5391
7021
-58962
-61518
-59783
-63014
32330
-66558
-59786
63652
-59783
-66560
-58958
-58965
32343
-66557
59493
-59786
75728
-64914
-66551
6948
-63044
-72207
-64916
-68102
-66561
-59788
-61511
62978
-61512
34523
-58955
58475
35205
-61518
-58955
-66551
63064
-84717
63549
-61512
-66561
-136563
51694
-59785
-66551
41599
-61518
62993
63133
-68099
58116
70545
-61521
-61512
-58958
-61518
63121
-68100
71335
34629
-72204
-72207
-68103
-68102
-64917
58213
-61518
1542
30148
72955
43694
75799
-66554
75247
-64913
-66551
32452
19217
-61521
18236
-64920
2213
-61514
43709
-61515
27928
-61517
-59786
-64916
69091
-64920
-64916
-66561
-64920
-61512
42171
-66564
29593
-58961
-58965
64099
-61512
-58955
19262
44331
61124
-66551
56858
-61518
7400
48838
-66555
-58952
-126563
66746
-66558
-61514
-68103
38049
-64919
-66561
9556
58816
-66555
-66551
17028
-61520
72666
-64920
63059
-58965
-58955
62995
65433
61196
-72207
72056
-66560
-59786
-61512
49736
5888
63496
-66557
25199
-66557
54284
70611
60356
-58962
-58955
43682
-66551
-68105
31839
-61518
32564
-58958
60310
-61512
-61512
-66561
11269
-61515
48584
13528
61367
-68102
-64914
-68105
-58955
-66551
-68100
-58961
47119
63491
76727
82198
4690
62101
-61518
10496
-61511
-64920
-59788
-61514
71176
-66548
-61512
-68102
-66557
-66551
66261
-66551
2276
-112399
-58955
63188
64088
13846
-64919
7451
-61518
-61512
-66555
64835
-66552
30165
-61518
6950
63041
7678
-66558
91734
-64920
-66551
69103
-66552
71213
-59786
-61508
-66561
-66588
13234
-61518
-66560
-61511
-58956
43709
-61518
-58965
31839
69535
-72210
-61509
-61518
-59791
62910
-66551
-126559
-61518
63491
-72207
-66554
2276
85454
-61512
-61518
-64913
76587
-66591
-64919
-58955
-66557
68298
-59791
-59782
-66548
-64916
39849
56610
-66551
-66561
63155
82391
-72213
60303
-61515
-66552
-61512
99830
-64919
68837
-84632
7526
-66551
-66548
-61512
65246
-59783
44116
64333
47662
61385
-127033
-66551
58178
-64919
62951
22309
91329
-61512
59202
-64919
63443
-58965
-61518
-68105
-61518
-61508
-68105
-68106
63335
98736
-153844
-66551
57170
-66548
65001
61640
</DataArray>
<DataArray NumberOfComponents='3' type='Float32' Name='vels' format='ascii'>
0.584751 -0.155246 0.002557
2.941750 0.743093 0.251364
0.387241 0.108471 -0.000988
0.559424 -0.051410 -0.000484
4.011166 -0.808442 0.007605
0.171374 -0.024118 -0.000238
5.291425 0.658114 0.015048
1.389184 -0.314097 0.000082
0.074313 -0.031816 0.000160
1.200168 -0.270189 0.000431
4.043204 0.516567 -0.062035
0.002446 -0.000799 0.025820
0.619901 0.043711 0.000023
0.837517 0.057638 -0.001315
0.014465 -0.000010 -0.000301
4.781214 -0.633258 0.223552
1.305016 0.059765 0.006194
1.841632 -0.359408 0.096556
0.430158 -0.491677 -0.020712
4.618366 0.202199 0.374453
4.057130 0.583726 0.325260
0.682658 0.031093 -0.000099
3.564954 -0.948543 -0.100939
-0.002420 0.000409 0.000855
5.081494 -0.728568 0.061442
2.709453 -0.571234 0.037044
2.890267 0.733475 0.271122
2.291721 0.555347 0.251364
0.046511 -0.007002 -0.000016
4.276207 -0.881350 -0.005989
0.401260 -0.000767 0.000457
0.000310 -0.004832 -0.004640
3.213363 -0.761119 -0.003224
1.656845 -0.012767 0.231690
30.832558 8.406263 0.242404
0.894765 -0.011491 0.002138
3.361597 0.485264 0.057820
5.072144 0.616756 0.203979
0.218628 0.209396 0.002157
4.822554 0.159554 -0.071552
0.905907 0.141128 -0.006719
0.119852 0.017186 0.002315
0.004683 -0.001724 0.000073
3.522981 0.454183 -0.022000
1.570683 -0.020759 0.000515
0.017966 0.000482 -0.000003
0.027323 -0.012306 -0.000004
0.171506 -0.000019 -0.000362
5.038774 -0.652624 0.013047
0.357112 0.002608 0.000206
2.926561 -0.297746 0.581025
0.311357 -0.025867 0.000177
2.831417 0.656188 0.157502
0.495280 0.473121 0.000389
-0.000391 0.000239 -0.000321
2.459462 0.587685 0.168515
0.251609 0.140867 -0.000651
0.749118 -0.007004 0.001853
4.325011 -0.485807 0.474073
0.672277 0.191188 0.000591
2.178042 -1.300211 1.027791
3.009809 -0.323029 0.523657
1.192634 -0.330380 -0.000424
3.487558 -0.164961 0.000768
1.625300 0.032475 -0.102624
3.590080 1.927790 0.001081
0.647659 0.224018 0.000016
4.340364 -0.231916 0.365021
3.114425 0.129711 0.500337
4.121013 0.480241 0.104173
3.314428 0.340714 0.441299
0.584294 -0.011058 0.001641
46.675339 14.517866 -0.076229
4.966831 -0.741021 0.103249
0.331673 0.133814 0.001124
-0.001283 -0.001317 -0.001299
1.553395 0.038121 -0.004771
4.058145 -0.762731 -0.344492
0.118020 -0.000088 0.000574
0.038894 0.000077 0.000792
0.762363 0.174197 -0.001302
2.447300 0.404613 0.136695
4.955756 -0.666599 0.026369
5.270291 0.597518 0.093265
3.790543 -0.755850 0.004429
0.360396 0.012166 0.002054
3.198346 -0.576469 0.091015
2.891380 0.658313 0.072510
4.708169 0.714293 0.041555
5.286538 0.662013 0.016323
0.700481 0.088905 0.441106
4.335292 -0.493674 0.469468
2.376679 0.415278 0.303110
3.978817 0.514039 -0.035953
2.925429 0.736889 0.253986
0.285015 -0.184656 -0.002065
0.045330 -1.437427 0.005576
2.275666 -0.013539 0.001623
4.657912 -0.665986 -0.017331
0.402313 0.016930 0.069481
4.122142 0.520750 -0.092827
0.683427 -0.917740 0.004654
4.068510 -0.838672 0.002245
-0.001487 -0.000012 -0.000964
0.003735 0.000605 -0.000248
3.529941 -0.711878 0.030954
2.701473 0.675651 0.006233
5.068028 0.739679 0.098900
0.039949 0.006479 -0.000737
5.282705 0.607003 0.090999
4.672356 0.220515 0.340548
0.001154 0.001191 0.001155
0.186729 0.083060 -0.000459
2.719856 0.689432 0.014472
1.875758 -0.371275 0.170103
3.526443 -0.813141 -0.314200
-0.000440 -0.000197 -0.000906
2.977139 -0.317598 0.549789
0.907101 0.241300 -0.001496
2.856396 0.655576 -0.021302
1.859110 -0.873646 0.025853
1.556557 0.491804 -0.008507
5.097804 -0.739710 -0.004191
5.187976 0.534039 0.131804
2.184550 -0.057329 -0.002896
-0.006230 -0.003589 -0.000064
0.063052 -0.112684 0.126129
0.243179 -0.000225 0.000833
3.941319 -0.939718 0.019078
3.094111 0.466580 0.051646
0.004390 -0.022317 0.000094
0.200455 0.001510 0.000165
2.947628 -0.317004 0.559127
3.315421 0.229466 0.303735
3.114699 0.812712 -0.006021
3.981705 0.784788 -0.179278
2.397503 0.576482 0.045044
2.262234 -0.103763 0.199135
46.605008 17.425592 -0.121316
0.135439 0.000523 -0.000300
2.453705 0.036037 -0.002453
3.273935 -0.703619 -0.146819
0.405637 0.019081 -0.000322
2.267504 0.537684 0.170558
3.031390 -0.650702 0.168210
1.226139 -0.301175 -0.001333
1.146884 0.265687 0.001245
3.485382 -0.705401 0.047642
4.244217 0.718171 -0.088138
0.078912 -0.035162 -0.038296
3.309975 0.272851 0.268077
0.669878 -0.257377 0.005390
3.143853 0.750221 0.009430
3.065246 -0.673178 0.198509
4.241233 -0.744797 0.007929
1.540504 -0.524412 -0.007437
3.991307 0.425104 0.155119
0.025061 0.000001 -0.000239
0.256862 0.206395 -0.001047
0.234853 -0.305463 -0.007756
0.535272 -0.002923 -0.001669
1.195867 0.545012 0.007884
4.864729 -0.743999 0.144699
4.023324 -0.834694 0.046985
0.016136 0.013794 -0.004408
2.333838 0.209392 0.090805
2.983754 -0.330680 0.536378
0.053963 -0.061435 0.003877
0.055415 0.000148 -0.000227
0.600654 0.095882 0.001883
0.833374 -1.237131 0.002785
2.912069 0.446903 0.058844
4.195891 -0.823559 0.007726
0.804367 -0.017906 0.000075
3.421469 0.801853 0.232091
2.443564 0.048675 0.003351
0.000793 0.000334 0.000132
3.917611 0.961390 0.066384
2.270796 0.045938 -0.002873
3.998002 -0.839101 0.052347
2.110943 0.365026 -0.216448
4.558290 -0.718325 -0.153658
2.517882 0.602668 0.087560
2.602964 -0.618944 0.038887
0.003147 -0.001069 0.000041
3.746715 -0.624846 0.010220
4.537418 -0.639668 -0.001990
2.525898 -0.494562 0.096555
1.796080 -0.005874 0.001353
0.797253 0.137577 0.000025
4.022468 -0.876011 0.007542
3.114020 0.835475 0.004567
4.032579 0.575637 0.282121
1.501351 -0.039478 -0.000088
0.367534 0.158199 -0.000159
5.273003 0.663612 0.018242
5.040750 0.742126 0.111195