<VTKFile type='UnstructuredGrid' version='1.0' byte_order='LittleEndian' header_type='UInt64'>
<UnstructuredGrid>
<Piece NumberOfCells='500' NumberOfPoints='500'>
<Points>
<DataArray NumberOfComponents='3' type='Float32' Name='Position' format='ascii'>
854.553887 185.428635 -3.951484
1029.059357 188.209033 -16.808274
247.521936 339.674948 -7.653057
1028.977209 230.333959 -4.691858
1029.278797 232.304881 -20.074967
554.546784 65.026545 -2.611787
1029.253611 152.748402 -21.930599
1028.999307 227.831264 -4.645276
797.208705 187.189106 -3.501174
1028.976444 231.812699 -2.730319
1029.136333 154.676584 -29.201451
89.846013 178.468500 -26.237544
622.173798 184.691788 -5.959565
1029.012795 161.936812 -4.195824
796.367731 215.284015 -4.192813
1029.359902 252.147987 -15.006536
1029.119520 187.784713 -4.743284
1029.087137 262.783777 -11.868301
1029.029070 226.804456 -4.882292
1029.193912 138.980634 -19.474711
1029.180406 166.324271 -12.000646
1029.044280 139.206071 -4.796140
1029.076102 228.539705 -26.569211
460.847073 396.303450 -3.314079
1029.103216 249.678682 -17.080837
1028.990499 208.533237 -16.447437
1029.196326 188.604010 -17.100767
1029.136178 186.426719 -8.694585
382.838406 281.010343 -35.285263
1029.023483 265.307023 -7.267714
992.309621 213.533836 -12.221703
1028.986844 170.082493 -4.972255
1029.231420 262.000992 -8.732897
1029.083701 205.611464 -10.271489
422.306524 386.274159 -3.543799
1028.995048 200.728172 -8.454059
1029.074164 155.183680 -27.112406
1029.321351 153.281068 -16.377951
1029.118512 194.574742 -31.573928
1028.982668 142.206514 -26.628187
1028.977491 138.452308 -6.168599
1029.116678 162.454031 -3.199817
1028.985923 150.846369 -36.375667
1029.147816 142.387907 -29.713177
846.419374 212.695429 -17.711160
1.316112 222.854672 -37.770931
1029.200992 142.712376 -29.274493
1029.016275 203.193862 -10.300218
1029.339088 256.934836 -22.392138
991.657477 191.023327 -6.607878
1029.096555 251.048780 -9.627166
1028.976346 227.605951 -4.622459
1029.044092 190.888146 -17.070591
391.217187 274.413318 -23.074336
-492.473994 187.053911 -2.754960
1029.140656 185.673421 -7.749712
1028.979257 251.410980 -3.149297
1029.222073 188.798442 -26.581276
1029.281029 251.617953 -16.541149
1029.054197 123.858472 -12.036674
1029.020888 154.537749 -28.918852
1029.144067 251.298274 -9.433218
1029.034549 273.754103 -8.068011
1029.092811 199.203232 -10.424503
1029.099325 207.296483 -29.207397
390.031707 264.358532 -27.413863
1029.004568 184.224658 -36.516415
1029.003818 260.121252 -19.353480
1029.219105 141.565174 -7.227381
1029.030335 140.847806 -10.327024
1029.210581 151.177371 -10.058554
514.583225 97.977685 -33.402362
422.743582 386.163063 -3.664093
1029.370072 249.889205 -17.917543
992.073315 217.403364 -3.007550
826.711068 212.688118 -31.231287
1028.990420 203.263316 -27.345185
1029.088630 226.583231 -26.791639
688.698249 192.141235 -7.882036
811.564333 183.138126 -13.138813
1028.977143 150.658634 -3.922269
1029.075219 199.084609 -13.594524
1029.306689 250.607125 -21.757990
1029.275264 140.263570 -17.033113
1029.110714 228.986199 -22.802082
1029.076635 162.116478 -4.060908
1029.118126 264.933374 -10.231840
1029.150350 191.275146 -16.086105
1029.304192 140.303527 -20.675616
1029.296586 152.742705 -21.728450
670.122420 216.124168 -34.535219
1029.317875 251.504023 -16.457303
1029.142010 196.584875 -14.344229
1029.292726 155.217574 -29.018318
1029.213633 188.409014 -16.858498
692.081466 221.107299 -1.644334
397.863643 67.514712 0.024426
1029.083866 230.763947 -4.547148
1029.337316 249.376128 -23.538960
1029.006290 140.497051 -6.606818
1029.101994 154.322595 -29.456101
798.065775 340.189081 -10.217636
1029.023898 231.951962 -20.916878
-432.658491 176.832017 -26.665626
-170.940503 278.434157 -19.890030
1029.244989 230.300666 -9.687840
1029.187334 191.618517 -20.456878
1029.318341 165.992030 -17.959244
-166.963679 279.947340 -19.887117
1028.977543 140.299234 -17.001177
1029.189046 140.141349 -19.420439
-500.457217 192.761364 -8.391670
1028.990966 260.564759 -4.797994
1029.088515 191.145182 -20.070877
1029.119364 214.611647 -7.296110
1029.162892 231.219450 -28.952026
488.341496 130.059437 -26.800492
1029.069190 250.884586 -9.429735
38.482274 325.849426 -5.209829
1029.161448 191.361488 -22.229912
299.884644 85.226930 -35.876717
1029.017562 182.407524 -4.431521
1029.203531 259.133438 -14.979347
1029.386622 140.349597 -17.517165
823.098087 212.685268 -8.839563
122.311014 222.308454 -33.770390
377.639320 41.467018 -2.348081
712.139633 212.639553 -7.082736
1029.257480 229.715106 -21.899225
1029.221177 141.549552 -28.168380
1028.981513 150.823350 -3.800304
331.285966 223.385043 -6.252145
1029.184340 250.622315 -9.354484
1029.115912 138.104862 -11.754595
1029.020587 188.147850 -23.823336
1029.259073 166.069571 -28.080659
1029.121508 190.466885 -8.136797
1029.124786 206.293152 -17.948811
422.237684 386.356569 -3.913509
335.187920 87.486666 -4.007397
1028.976683 198.275371 -20.143932
1029.216848 231.067388 -27.441933
1028.996666 183.192237 -36.097965
1029.134359 189.002731 -8.993922
1028.982673 228.031097 -11.093356
1029.039157 263.371907 -6.178223
1029.066686 123.795126 -20.973499
1029.064718 230.128527 -9.890916
1029.261154 171.158954 -29.184869
381.472231 52.266270 -10.001146
1029.152980 136.636137 -10.985803
1028.980528 254.689233 -4.344013
1029.072949 189.720784 -13.672791
1029.126679 229.823613 -11.368067
1029.116635 266.379400 -22.171789
1029.076227 263.962610 -11.302050
1029.194718 140.926378 -10.790143
1029.036236 191.464171 -29.033855
857.474667 179.466807 -2.433608
737.426477 181.455248 -5.632677
1029.077106 207.407780 -12.785391
1029.082559 267.461904 -10.887103
1029.165082 249.277036 -18.436584
1029.236544 229.448986 -17.039859
683.462160 118.493453 -1.600919
1029.046234 203.253687 -14.894425
1029.162656 250.509853 -9.214404
709.042930 176.212646 -23.630506
567.420697 4.184997 -13.373961
994.879292 118.708467 -13.245305
1028.977129 270.743090 -9.964441
1028.993105 141.600352 -27.791848
1029.312762 229.305865 -15.668280
1028.976285 206.334641 -3.979890
1029.207264 189.143456 -11.935037
1029.079315 195.523317 -11.910939
-521.903577 274.703004 -37.130900
1029.232534 189.628657 -19.390733
1029.052152 201.313464 -9.953693
1029.259166 229.986926 -17.220021
1029.103068 198.247599 -27.320136
1028.989402 252.799752 -25.582654
1029.160703 187.417509 -7.500706
1029.086343 261.955222 -10.171866
90.311021 180.000480 -26.202527
1029.196213 265.861447 -23.563606
1029.060599 250.741090 -23.158830
1028.978047 263.287548 -11.028804
1029.048502 188.575029 -17.010656
510.336465 255.969906 -3.202956
1029.184939 230.710144 -21.207296
1029.139103 188.001014 -24.091368
1029.296602 165.116357 -11.684768
771.182512 212.663064 -28.661125
377.318752 304.781605 -1.501421
1029.246652 152.097065 -21.274371
1029.238727 166.185289 -18.220476
996.987495 115.384016 -13.381415
1029.317852 166.310171 -11.196974
1029.074538 141.753036 -28.112455
1028.978325 226.681346 -19.098767
1029.070636 229.001683 -26.946571
1029.172442 255.162014 -27.468766
1029.076318 154.088305 -26.648681
1029.022982 123.593200 -7.574731
1029.134247 165.425647 -17.916420
1028.978640 150.731124 -3.436694
1028.993193 251.027087 -9.360745
1029.191202 138.906774 -12.100933
433.546615 67.075450 0.117134
790.843373 212.671420 -15.948524
1028.987540 207.207378 -15.083185
1029.256612 249.121303 -18.632310
1029.083419 261.565138 -18.628778
1029.186294 141.644426 -26.875536
1029.125480 163.915666 -20.865933
1029.067550 187.903334 -11.437351
780.158774 212.668376 -28.398868
1028.977323 191.701105 -10.560304
296.195737 110.878837 -35.822371
1029.130325 227.908705 -11.363294
1029.161652 187.907923 -23.740786
1028.979089 141.639668 -27.845654
1028.994581 191.539402 -20.807746
1029.089074 228.582486 -11.134421
1029.032689 139.337093 -11.491075
1029.099328 196.816886 -26.464149
372.620258 58.008078 -18.904551
1028.977700 123.771931 -20.853404
1029.118109 188.779216 -7.828990
1029.058995 154.448558 -27.720059
431.909000 254.555876 0.000849
1028.991167 207.248657 -36.108135
1029.130825 162.909080 -15.085360
1029.287445 139.578995 -9.591735
719.111064 359.135143 -5.467284
1029.138655 191.579951 -20.417899
967.766507 220.156963 -26.508923
792.693920 181.631579 -19.945574
1029.215009 263.230013 -9.648705
1029.156459 142.382262 -28.460508
1029.034368 200.459019 -7.800582
1029.114565 185.116480 -26.917102
1029.027159 188.449629 -8.741109
1029.088616 227.990706 -18.525192
1028.995233 188.013687 -23.848952
765.031567 192.170510 -30.103184
1028.976192 263.358560 -7.415076
1028.983311 138.661981 -6.366192
1029.070693 141.699080 -28.012754
1029.056723 204.324582 -9.094241
1028.993735 205.652109 -16.980837
1029.000713 266.680231 -14.841078
1029.019230 264.554280 -17.341043
1029.020443 260.195748 -17.082613
1028.980619 187.793214 -4.200566
1029.136234 190.187559 -24.030354
494.026707 395.316752 -29.548081
571.708853 289.758321 -36.188715
812.531761 186.096530 -5.128213
316.337029 180.088803 -16.302875
1028.994751 205.309279 -3.489589
1028.992364 140.724015 -18.226469
1029.094447 201.959905 -15.364515
1029.288175 250.532170 -11.240318
1028.982169 140.578835 -8.523235
437.426931 55.969046 -31.925012
-499.496689 189.121494 -25.800506
1028.991480 184.793799 -26.995024
731.843881 255.627603 -3.968202
1029.263509 251.378450 -21.648380
-406.650185 125.392323 -36.851151
1029.055936 181.494904 -18.997324
311.999059 142.692561 -10.021940
1029.168282 189.604127 -16.148881
1029.106028 189.653477 -26.915490
1029.060040 188.469406 -26.483053
1029.156936 166.796368 -19.504463
1029.062033 251.332961 -17.754174
1028.992109 208.372391 -19.999740
1029.058731 251.612451 -21.507725
1029.209896 251.530546 -18.765869
1029.226357 141.141672 -26.962504
1029.035831 258.818714 -21.723534
1029.137454 191.840832 -7.148699
1029.139641 140.977609 -27.445265
1028.992617 143.275617 -33.765066
1029.007360 262.946109 -3.788562
1029.052570 231.238678 -23.593649
1028.981230 228.890302 -26.848342
1029.093284 251.035262 -4.689537
1029.019086 186.784368 -8.920433
1029.062089 229.606706 -11.842059
-304.076751 184.642683 -4.123286
1029.088425 125.891068 -29.781710
1029.120593 200.514852 -29.478235
1029.055737 139.105929 -11.640209
903.259567 124.889293 -33.178860
1029.084872 192.212440 -20.238293
-38.625507 208.923994 -6.651564
914.441280 184.178229 -12.165468
1028.996143 151.715862 -17.273462
1028.994285 231.174448 -6.028807
411.591621 245.039275 -3.410562
701.905914 214.448614 -4.659202
1029.256785 153.702561 -22.613375
1029.274629 189.295571 -19.419725
1028.980026 266.824802 -15.162600
1029.044847 141.332420 -27.876488
1029.096721 252.600993 -23.946544
1029.235200 153.879772 -27.568629
-116.714036 213.556480 -36.253395
1029.187861 266.035594 -23.100899
1029.273908 151.732683 -17.452964
1029.014351 139.407205 -11.818104
579.693702 169.979098 -3.579235
1028.984348 184.826144 -32.941579
1029.100629 162.443900 -3.618025
1028.980649 249.835231 -21.175183
987.950018 189.333356 -10.750591
1029.188393 230.634547 -28.444128
1029.080799 230.197874 -9.454699
846.070725 212.696818 -31.091526
1029.079907 272.075715 -6.574468
1029.065069 166.705688 -29.107270
1029.008500 206.564596 -15.792315
1029.003463 176.802546 -2.378019
1029.067852 141.603446 -27.818469
1029.069269 165.176413 -18.524279
1029.133526 191.427176 -10.540003
793.852706 176.991949 -2.648485
868.005812 179.844466 -4.237620
1018.738264 121.593463 -26.666972
1029.220334 140.786220 -22.054353
957.543618 221.551326 -35.111348
1029.175277 141.288491 -25.554240
1028.996781 195.519632 -30.518932
1028.983994 232.598256 -35.049830
1029.023303 162.038165 -4.457354
1029.228811 229.056026 -21.423484
1029.263211 229.727649 -8.828450
1029.075549 198.764544 -29.835502
1029.255636 140.847097 -10.347196
1029.144526 262.952322 -22.063480
1028.985088 143.642631 -33.755904
1029.093018 189.431262 -22.359625
497.926485 342.752456 -2.918194
1029.246426 229.393185 -16.587050
1029.139657 191.405911 -25.144298
1029.093379 191.825392 -10.545870
1029.146176 187.848913 -9.040993
1029.240783 141.515258 -27.379984
-109.579563 386.369243 -5.442368
1029.025452 191.423095 -15.451683
1028.980240 262.326153 -5.436155
976.953260 185.937603 -28.948155
1029.066030 121.892387 -10.623914
1029.083022 262.773429 -19.497108
1029.086616 250.371744 -7.973811
1029.037398 262.781573 -26.167907
1029.137774 227.226450 -10.712844
1029.144133 141.824809 -12.094427
1028.988883 264.995240 -7.280992
1029.072346 230.843770 -24.585391
1029.132174 124.818879 -29.359735
1029.023845 123.393126 -12.181225
1029.022948 190.328694 -22.596931
383.681105 264.248966 -20.043930
1029.064176 151.053978 -19.614550
1028.991987 161.377523 -5.414107
1028.999467 189.009184 -23.377562
657.363869 180.245678 -5.732104
1029.220458 185.847851 -11.251454
1029.284457 252.216365 -23.460776
1029.129728 164.701498 -20.667179
1029.238084 189.379812 -19.425016
1029.118967 255.401170 -11.213091
1028.998408 152.824558 -6.281295
1029.029557 189.622144 -9.059488
1029.097936 262.061277 -16.866182
1029.292222 139.341657 -20.537809
1029.028994 140.404660 -8.938870
874.946338 81.449754 -6.665838
1029.005844 140.255329 -9.204981
-497.816652 190.821685 -14.874992
422.364659 386.234165 -5.736371
1029.087163 227.049554 -11.271518
993.177734 189.625253 -19.712646
1029.258975 272.463903 -17.588611
275.704917 74.918830 -9.752477
1029.284670 252.620977 -25.589771
-137.002993 213.838208 -37.211392
1029.146218 191.360374 -20.366622
1029.105913 190.489401 -8.928432
1028.984297 152.167014 -15.410153
661.312125 188.298905 -35.175429
1028.977495 139.629717 -6.673073
276.987272 370.117465 -34.797267
1029.217982 189.239624 -24.197824
330.851777 98.026564 -3.861649
805.361828 212.678350 -9.199199
-35.683353 13.744251 -26.226584
1029.331110 152.525238 -20.330589
176.926751 217.415118 -36.124763
1029.187656 251.079710 -22.841616
1029.318670 140.222168 -7.695200
1028.982306 190.022785 -4.317706
1029.189180 152.203793 -9.786901
1028.984107 199.209111 -10.400203
1029.020630 165.105675 -19.151886
1029.009679 191.458190 -6.372217
1029.190473 154.549839 -27.821762
1029.119299 138.490448 -7.169665
460.842833 396.374424 -3.902238
1028.992859 189.529076 -21.214293
1029.200837 141.506837 -28.207214
1029.122687 189.627835 -12.980992
1029.110689 230.414989 -7.779148
314.175281 136.985324 -9.906566
1029.067094 190.358882 -21.601804
1029.149717 228.931587 -26.989552
1029.029059 147.989787 -35.176404
1028.985557 257.170743 -6.105792
1029.126705 199.221430 -20.196635
1028.978204 191.616251 -5.973972
1029.154759 191.002642 -23.581673
1029.118563 166.532241 -28.691753
1029.013791 207.191872 -3.795263
1029.114841 139.297521 -11.567960
411.558032 245.110662 -3.276845
1029.136270 191.163161 -23.318089
1029.028112 123.349964 -11.098138
1029.105731 205.069380 -15.635904
1028.991614 151.329544 -19.248305
-498.138787 191.147950 -14.838116
372.583227 54.707716 -20.816006
1029.120078 187.702432 -9.310782
1029.163817 184.148452 -21.974278
1029.312471 248.234907 -9.873754
1029.028845 175.469018 -33.106014
1029.328978 136.843542 -18.881703
1029.094399 248.978200 -25.149447
1029.222021 229.310936 -11.098716
1029.172426 140.413768 -21.018412
1029.112981 188.285432 -16.581198
1029.118423 167.132526 -29.081801
1029.032436 162.086172 -8.090933
1029.041121 142.217793 -6.243565
1029.236015 251.014534 -17.909152
785.072518 221.995003 -35.511136
1023.721268 217.655896 -1.987778
1028.977966 139.590846 -10.513834
1029.013381 155.959542 -27.775785
1029.179559 196.049637 -26.614934
1029.061363 206.387162 -29.194868
1029.030631 206.195502 -29.210784
1029.020288 191.442614 -6.282925
1029.122752 191.332256 -15.803695
1029.022018 152.098673 -9.721617
1028.979961 185.456998 -7.675500
1029.135335 125.048268 -29.568696
1029.034602 250.235039 -24.035320
1028.995501 195.148381 -11.832256
372.583433 59.776160 -12.460715
519.770805 185.689968 -6.406797
1029.121923 139.486113 -10.572183
1028.993989 138.911566 -6.091481
1029.016906 187.725508 -9.274138
1029.048186 204.788225 -27.515886
1029.281845 164.317919 -10.568704
382.891027 281.215530 -35.459226
1029.108424 249.765433 -4.572815
177.060221 216.888848 -35.893398
1029.190335 122.338795 -9.187418
400.884835 273.474580 -5.355285
1029.080642 139.809185 -8.448109
1028.978789 183.243941 -1.931137
1029.190996 251.339016 -24.093351
823.576133 212.679033 -8.359305
734.707300 182.018057 -19.735614
262.929500 319.515916 -37.173627
1029.091622 188.026010 -8.426024
877.228454 174.875846 -1.454623
1029.233175 246.857364 -23.058501
1029.114734 270.063989 -26.811052
1029.182799 226.565878 -26.855878
1029.101006 187.965896 -24.494495
1029.001557 265.025473 -24.043119
1029.035127 184.774956 -22.472807
1029.077783 191.459570 -6.368736
1029.147602 265.728428 -24.808093
1028.979811 266.614511 -21.884949
1029.002324 274.602207 -23.983865
90.106496 179.344285 -26.205176
378.075462 7.721897 -0.963226
1029.072314 141.391280 -11.738849
1028.985163 154.877716 -5.130311
1029.042814 142.222528 -5.287601
1028.978203 247.968570 -6.538154
1028.976670 203.821537 -17.213312
</DataArray>
</Points>
<PointData>
<DataArray NumberOfComponents='1' type='Int32' Name='ParticleType' format='ascii'>
1
1
1
1
1
1
1
1
1
1
1
1
1
1
1
1
1
1
1
1
1
1
1
1
1
1
1
1
1
1
1
1
1
1
1
1
1
1
1
1
1
1
1
1
1
1
1
1
1
1
1
1
1
1
1
1
1
1
1
1
1
1
1
1
1
1
1
1
1
1
1
1
1
1
1
1
1
1
1
1
1
1
1
1
1
1
1
1
1
1
1
1
1
1
1
1
1
1
1
1
1
1
1
1
1
1
1
1
1
1
1
1
1
1
1
1
1
1
1
1
1
1
1
1
1
1
1
1
1
1
1
1
1
1
1
1
1
1
1
1
1
1
1
1
1
1
1
1
1
1
1
1
1
1
1
1
1
1
1
1
1
1
1
1
1
1
1
1
1
1
1
1
1
1
1
1
1
1
1
1
1
1
1
1
1
1
1
1
1
1
1
1
1
1
1
1
1
1
1
1
1
1
1
1
1
1
1
1
1
1
1
1
1
1
1
1
1
1
1
1
1
1
1
1
1
1
1
1
1
1
1
1
1
1
1
1
1
1
1
1
1
1
1
1
1
1
1
1
1
1
1
1
1
1
1
1
1
1
1
1
1
1
1
1
1
1
1
1
1
1
1
1
1
1
1
1
1
1
1
1
1
1
1
1
1
1
1
1
1
1
1
1
1
1
1
1
1
1
1
1
1
1
1
1
1
1
1
1
1
1
1
1
1
1
1
1
1
1
1
1
1
1
1
1
1
1
1
1
1
1
1
1
1
1
1
1
1
1
1
1
1
1
1
1
1
1
1
1
1
1
1
1
1
1
1
1
1
1
1
1
1
1
1
1
1
1
1
1
1
1
1
1
1
1
1
1
1
1
1
1
1
1
1
1
1
1
1
1
1
1
1
1
1
1
1
1
1
1
1
1
1
1
1
1
1
1
1
1
1
1
1
1
1
1
1
1
1
1
1
1
1
1
1
1
1
1
1
1
1
1
1
1
1
1
1
1
1
1
1
1
1
1
1
1
1
1
1
1
1
1
1
1
1
1
1
1
1
1
1
1
1
1
1
1
1
1
1
1
1
1
1
1
1
1
1
1
1
1
1
1
1
1
1
1
1
1
1
1
1
1
1
1
1
1
1
1
1
1
1
1
</DataArray>
<DataArray NumberOfComponents='1' type='Int32' Name='ParticleID' format='ascii'>
0
1
2
3
4
5
6
7
8
9
10
11
12
13
14
15
16
17
18
19
20
21
22
23
24
25
26
27
28
29
30
31
32
33
34
35
36
37
38
39
40
41
42
43
44
45
46
47
48
49
50
51
52
53
54
55
56
57
58
59
60
61
62
63
64
65
66
67
68
69
70
71
72
73
74
75
76
77
78
79
80
81
82
83
84
85
86
87
88
89
90
91
92
93
94
95
96
97
98
99
100
101
102
103
104
105
106
107
108
109
110
111
112
113
114
115
116
117
118
119
120
121
122
123
124
125
126
127
128
129
130
131
132
133
134
135
136
137
138
139
140
141
142
143
144
145
146
147
148
149
150
151
152
153
154
155
156
157
158
159
160
161
162
163
164
165
166
167
168
169
170
171
172
173
174
175
176
177
178
179
180
181
182
183
184
185
186
187
188
189
190
191
192
193
194
195
196
197
198
199
200
201
202
203
204
205
206
207
208
209
210
211
212
213
214
215
216
217
218
219
220
221
222
223
224
225
226
227
228
229
230
231
232
233
234
235
236
237
238
239
240
241
242
243
244
245
246
247
248
249
250
251
252
253
254
255
256
257
258
259
260
261
262
263
264
265
266
267
268
269
270
271
272
273
274
275
276
277
278
279
280
281
282
283
284
285
286
287
288
289
290
291
292
293
294
295
296
297
298
299
300
301
302
303
304
305
306
307
308
309
310
311
312
313
314
315
316
317
318
319
320
321
322
323
324
325
326
327
328
329
330
331
332
333
334
335
336
337
338
339
340
341
342
343
344
345
346
347
348
349
350
351
352
353
354
355
356
357
358
359
360
361
362
363
364
365
366
367
368
369
370
371
372
373
374
375
376
377
378
379
380
381
382
383
384
385
386
387
388
389
390
391
392
393
394
395
396
397
398
399
400
401
402
403
404
405
406
407
408
409
410
411
412
413
414
415
416
417
418
419
420
421
422
423
424
425
426
427
428
429
430
431
432
433
434
435
436
437
438
439
440
441
442
443
444
445
446
447
448
449
450
451
452
453
454
455
456
457
458
459
460
461
462
463
464
465
466
467
468
469
470
471
472
473
474
475
476
477
478
479
480
481
482
483
484
485
486
487
488
489
490
491
492
493
494
495
496
497
498
499
</DataArray>
<DataArray NumberOfComponents='1' type='Int8' Name='IsActive' format='ascii'>
1
0
1
0
0
1
0
0
1
0
0
1
1
0
1
0
0
0
0
0
0
0
0
1
0
0
0
0
1
0
1
0
0
0
0
0
0
0
0
0
0
0
0
0
0
1
0
0
0
1
0
0
0
1
1
0
0
0
0
0
0
0
0
0
0
1
0
0
0
0
0
1
0
0
1
0
0
0
0
1
0
0
0
0
0
0
0
0
0
0
1
0
0
0
0
1
0
0
0
0
0
1
0
1
1
0
0
0
1
0
0
1
0
0
0
0
1
0
1
0
1
0
0
0
0
1
0
0
0
0
0
1
0
0
0
0
0
0
0
1
0
0
0
0
0
0
0
0
0
0
0
0
0
0
0
0
0
0
1
1
0
0
0
0
1
0
0
1
1
1
0
0
0
0
0
0
1
0
0
0
0
0
0
0
1
0
0
0
0
1
0
0
0
0
1
0
0
1
0
0
0
0
0
0
0
0
0
0
0
0
0
0
0
0
0
0
0
0
0
1
0
0
0
0
0
0
0
0
0
0
0
0
0
0
0
1
0
1
1
0
0
0
0
0
0
0
0
0
0
0
0
0
0
0
0
0
0
1
1
1
1
0
0
0
0
0
1
1
0
1
0
1
0
1
0
0
0
0
0
0
0
0
0
0
0
0
0
0
0
0
0
0
0
1
0
0
0
1
0
1
1
0
0
0
1
0
0
0
0
0
0
1
0
0
0
1
0
0
0
1
0
0
0
0
0
0
0
0
0
0
1
1
1
0
1
0
0
0
0
0
0
0
0
0
0
0
1
0
0
0
0
0
1
0
0
1
0
0
0
0
0
0
0
0
0
0
0
1
0
0
0
1
0
0
0
0
0
0
0
0
0
0
1
0
0
0
0
1
0
1
0
1
0
0
0
1
0
1
0
1
0
1
0
1
0
0
0
0
0
0
0
0
0
1
0
0
0
0
1
0
0
0
0
0
0
0
0
0
0
0
0
0
0
0
0
0
0
0
0
0
0
0
0
0
0
0
0
0
0
1
1
0
0
0
0
0
0
0
0
0
0
0
0
0
1
0
0
0
0
0
1
0
1
0
0
0
0
0
0
1
1
0
1
0
0
0
0
0
0
0
0
0
0
1
0
0
0
0
0
0
</DataArray>
<DataArray NumberOfComponents='1' type='Int32' Name='ParticleTetID' format='ascii'>
68834
-61515
34365
-58952
-58962
75726
-66558
-58952
63164
-58953
-66561
98736
61219
-59780
63038
-64917
-61508
-68099
-58952
-66554
-59783
-66548
-58961
81758
-64916
-70586
-61515
-61512
37708
-68100
74884
-59780
-68099
-72204
-112396
-72204
-66561
-66555
-72212
-66557
-66585
-59780
-66564
-66560
-69092
31192
-66560
-72204
-64920
74900
-64914
-58952
-61515
82661
19262
-61512
-64911
-61517
-64917
-66587
-66561
-64914
-68100
-72203
-72213
82654
-61524
-64917
-66552
-66551
-66552
80171
-112396
-64916
73242
-67784
-72213
-58965
-63131
63058
-66549
-72207
-64920
-66554
-58961
-59780
-68099
-61515
-66557
-66558
65176
-64917
-72207
-66561
-61515
65124
-172329
-58952
-64919
-66548
-66561
63401
-58962
3808
6415
-58955
-61518
-59786
6415
-66554
-66554
2273
-64911
-61518
-70584
-58965
55938
-64914
33031
-61518
95997
-61508
-64917
-66554
-62952
27970
-146594
-63024
-58962
-66560
-66549
41275
-64914
-66588
-61518
-59791
-61512
-72207
-112396
41294
-72210
-58965
-61523
-61512
-58955
-68096
-66594
-58955
-59791
-156163
-66588
-64911
-61515
-58955
-68105
-68099
-66551
-61521
59418
63092
-72204
-68099
-64916
-58958
68492
-72207
-64914
65369
61386
63562
-68100
-66560
-58958
-72201
-61511
-72203
10690
-61514
-72204
-58958
-72213
-64919
-61512
-68099
98736
-68105
-64919
-68099
-61515
64710
-58962
-61518
-59783
-63014
45504
-66558
-59786
63564
-59783
-66560
-58958
-58965
-64923
-66557
-66588
-59786
-66549
-64914
-66551
-87052
-63044
-72207
-64916
-68102
-66561
-59788
-61511
-63015
-61512
94783
-58955
-61518
-66560
-61518
-58955
-66551
-72209
-84717
-66594
-61512
-66561
-136563
-72216
-59785
-66551
63416
-61518
61642
63169
-68099
-66560
-72204
-61521
-61512
-58958
-61518
-63212
-68100
-66585
-66560
-72204
-72207
-68103
-68102
-64917
-61509
-61518
52916
61343
63056
43694
-72201
-66554
-72207
-64913
-66551
87372
19217
-61521
69824
-64920
2213
-61514
45131
-61515
-61521
-61517
-59786
-64916
-70590
-64920
-64916
-66561
-64920
-61512
-66560
-66564
-68096
-58961
-58965
-64910
-61512
-58955
9325
-66596
-72213
-66551
76963
-61518
23851
71951
-66555
-58952
-126563
62894
-66558
-61514
-68103
-66560
-64919
-66561
5415
-68105
-66555
-66551
72234
-61520
-59780
-64920
66803
-58965
-58955
-69098
-68096
-59791
-72207
-61508
-66560
-59786
-61512
65322
58466
66486
-66557
77721
-66557
-72212
-58968
-59780
-58962
-58955
-72212
-66551
-68105
-66564
-61518
51391
-58958
-61518
-61512
-61512
-66561
10802
-61515
-68096
68558
-66587
-68102
-64914
-68105
-58955
-66551
-68100
-58961
-66596
-66587
-61518
82198
-66554
-59780
-61518
63146
-61511
-64920
-59788
-61514
-64914
-66548
-61512
-68102
-66557
-66551
63613
-66551
-19215
-112399
-58955
74906
-68102
95610
-64919
17045
-61518
-61512
-66555
63161
-66552
31553
-61518
25094
-62951
5626
-66558
91558
-64920
-66551
-61509
-66552
-72203
-59786
-61508
-66561
-66588
81758
-61518
-66560
-61511
-58956
50999
-61518
-58965
-66564
-64910
-72210
-61509
-61518
-59791
-72201
-66551
-126559
-61518
-66587
-72207
-66554
-19215
-85665
-61512
-61518
-64913
-59792
-66591
-64919
-58955
-66557
-61515
-59791
-59782
-66548
-64916
65267
70578
-66551
-66561
-72209
-72213
-72213
-61508
-61515
-66552
-61512
-66596
-64919
-72203
-84632
66457
-66551
-66548
-61512
-72213
-59783
37708
-64910
91558
-66587
-127033
-66551
-61509
-64919
-62952
63098
29445
-61512
78642
-64919
-68109
-58965
-61518
-68105
-61518
-61508
-68105
-68106
-68106
98736
-153844
-66551
-66549
-66548
-64910
-72207
</DataArray>
<DataArray NumberOfComponents='3' type='Float32' Name='vels' format='ascii'>
0.112032 0.000233 0.002196
2.941750 0.743093 0.251364
0.252915 0.511822 -0.000388
1.486189 -0.320619 0.095067
4.011166 -0.808442 0.007605
0.533101 0.052577 0.000497
5.291425 0.658114 0.015048
1.176154 -0.254865 0.050298
0.051497 -0.000097 0.001390
0.048810 -0.012815 0.009643
4.043204 0.516567 -0.062035
0.003854 -0.000746 -0.000335
0.148001 0.000106 0.003022
1.734635 0.268668 0.052586
0.010447 0.000042 0.000817
4.781214 -0.633258 0.223552
2.072237 0.492204 0.162694
1.841632 -0.359408 0.096556
0.958062 -0.210113 0.039403
4.618366 0.202199 0.374453
4.057130 0.583726 0.325260
0.868921 0.125844 -0.024826
3.564954 -0.948543 -0.100939
-0.010816 -0.000533 0.000326
5.081494 -0.728568 0.061442
2.709453 -0.571234 0.037044
2.890267 0.733475 0.271122
2.291721 0.555347 0.251364
0.001039 -0.002597 -0.000001
0.600488 -0.175699 0.015577
0.373897 -0.095873 -0.000915
2.583241 0.369976 0.228902
3.213363 -0.761119 -0.003224
1.656845 -0.012767 0.231690
30.832558 8.406263 0.242404
1.694059 0.173883 0.293947
3.361597 0.485264 0.057820
5.072144 0.616756 0.203979
2.071983 0.410362 -0.218163
4.822554 0.159554 -0.071552
0.163137 0.014290 0.007623
2.143072 0.333800 0.008801
1.562035 0.130564 -0.099885
3.522981 0.454183 -0.022000
1.981235 -0.030602 0.001087
0.156208 0.015998 0.000062
3.345877 0.458167 0.004008
1.580142 0.029803 0.349836
5.038774 -0.652624 0.013047
-0.000819 -0.000112 -0.000117
2.926561 -0.297746 0.581025
1.155041 -0.250378 0.045583
2.831417 0.656188 0.157502
0.001007 -0.000439 -0.003233
-0.000714 0.000252 -0.000753
2.459462 0.587685 0.168515
0.044751 -0.005794 0.011571
3.688955 0.961138 -0.219906
4.325011 -0.485807 0.474073
1.009111 0.287359 0.005718
3.969074 0.510293 -0.043608
3.009809 -0.323029 0.523657
2.087373 -0.571330 0.004354
2.169836 0.361286 0.178099
1.625300 0.032475 -0.102624
-0.000488 -0.001845 -0.023509
1.179188 0.254575 -0.144378
4.340364 -0.231916 0.365021
3.114425 0.129711 0.500337
4.121013 0.480241 0.104173
3.314428 0.340714 0.441299
0.012142 0.011405 -0.000180
46.675339 14.517866 -0.076229
4.966831 -0.741021 0.103249
0.775516 -0.175738 -0.000378
1.317380 -0.017768 0.000264
1.666596 0.213651 -0.091226
4.058145 -0.762731 -0.344492
1.889371 0.057292 0.002064
0.158111 0.000865 0.000465
0.106433 0.018253 0.009396
2.447300 0.404613 0.136695
4.955756 -0.666599 0.026369
5.270291 0.597518 0.093265
3.790543 -0.755850 0.004429
1.803757 0.278967 0.048768
3.198346 -0.576469 0.091015
2.891380 0.658313 0.072510
4.708169 0.714293 0.041555
5.286538 0.662013 0.016323
0.002302 0.000705 0.000003
4.335292 -0.493674 0.469468
2.376679 0.415278 0.303110
3.978817 0.514039 -0.035953
2.925429 0.736889 0.253986
0.346616 -0.009572 -0.000453
16.443892 0.216408 0.432539
1.565890 -0.337596 0.089770
4.657912 -0.665986 -0.017331
0.402313 0.016930 0.069481
4.122142 0.520750 -0.092827
0.012695 -0.003718 0.000383
4.068510 -0.838672 0.002245
-0.003400 -0.000006 -0.000911
0.059741 0.009565 -0.000049
3.529941 -0.711878 0.030954
2.701473 0.675651 0.006233
5.068028 0.739679 0.098900
0.060709 0.009778 -0.000400
5.282705 0.607003 0.090999
4.672356 0.220515 0.340548
0.000114 0.001450 0.000710
0.716710 -0.121875 -0.026223
2.719856 0.689432 0.014472
1.875758 -0.371275 0.170103
3.526443 -0.813141 -0.314200
0.177298 0.542898 0.008022
2.977139 -0.317598 0.549789
0.953823 0.057785 -0.006511
2.856396 0.655576 -0.021302
-0.000256 -0.000889 0.000243
1.562766 0.369950 0.099079
5.097804 -0.739710 -0.004191
5.187976 0.534039 0.131804
2.184550 -0.057329 -0.002896
-0.006399 -0.002471 -0.000052
0.063052 -0.112684 0.126129
0.384938 -0.001348 0.000332
3.941319 -0.939718 0.019078
3.094111 0.466580 0.051646
0.179789 0.026969 0.004673
0.447291 0.391210 0.006609
2.947628 -0.317004 0.559127
3.315421 0.229466 0.303735
3.114699 0.812712 -0.006021
3.981705 0.784788 -0.179278
2.397503 0.576482 0.045044
2.262234 -0.103763 0.199135
46.605008 17.425592 -0.121316
1.239972 -1.475426 -0.011637
2.453705 0.036037 -0.002453
3.273935 -0.703619 -0.146819
1.034018 0.217794 -0.121456
2.267504 0.537684 0.170558
3.031390 -0.650702 0.168210
0.798581 -0.043527 0.108054
1.769560 0.186691 0.019901
3.485382 -0.705401 0.047642
4.244217 0.718171 -0.088138
0.078912 -0.035162 -0.038296
3.309975 0.272851 0.268077
0.028963 -0.002091 0.012138
3.143853 0.750221 0.009430
3.065246 -0.673178 0.198509
4.241233 -0.744797 0.007929
2.531490 -0.450644 0.122602
3.991307 0.425104 0.155119
2.090981 0.493655 -0.054874
0.948538 0.041139 0.001487
0.006630 0.000012 0.001256
1.507903 -0.165616 0.346675
3.337287 -0.471002 0.163648
4.864729 -0.743999 0.144699
4.023324 -0.834694 0.046985
0.025199 0.004243 0.000422
2.333838 0.209392 0.090805
2.983754 -0.330680 0.536378
2.166042 0.069784 -0.000191
0.020244 0.000012 -0.000328
0.068042 0.019863 0.001820
0.095649 -0.018607 0.012245
2.912069 0.446903 0.058844
4.195891 -0.823559 0.007726
0.422150 -0.040920 0.003416
3.421469 0.801853 0.232091
1.914013 0.373947 0.333840
-0.001275 0.000310 0.000119
3.917611 0.961390 0.066384
1.535828 0.082314 0.421986
3.998002 -0.839101 0.052347
2.110943 0.365026 -0.216448
4.558290 -0.718325 -0.153658
2.517882 0.602668 0.087560
2.602964 -0.618944 0.038887
-0.004093 0.002655 0.000202
3.746715 -0.624846 0.010220
4.537418 -0.639668 -0.001990
2.525898 -0.494562 0.096555