<VTKFile type='UnstructuredGrid' version='1.0' byte_order='LittleEndian' header_type='UInt64'>
<UnstructuredGrid>
<Piece NumberOfCells='500' NumberOfPoints='500'>
<Points>
<DataArray NumberOfComponents='3' type='Float32' Name='Position' format='ascii'>
-182.859564 233.559463 -4.852116
55.147692 214.443756 -21.489210
-446.203038 292.101889 -6.499993
-242.940100 265.702188 -10.223532
237.304242 214.165773 -22.669674
-375.038509 146.179524 -2.059734
68.050988 203.498970 -27.944409
-158.045063 319.490301 -7.424240
-185.457677 232.634714 -5.165145
-316.364453 252.850773 -4.729396
-45.722886 144.149789 -32.489666
-352.395915 75.384406 -30.012365
-334.456498 220.129040 -5.996044
-208.230709 141.206123 -3.970863
-52.774625 255.679923 -6.828729
224.036530 226.069419 -15.746231
8.906484 198.204034 -9.188338
66.805480 302.771053 -14.977115
-368.538271 280.276110 -6.242924
70.712149 187.059851 -20.957716
324.537202 70.939847 -16.099766
-213.920264 61.593674 -4.311847
265.084394 234.195349 -26.212109
-68.634830 384.959835 -15.745457
234.279580 240.947219 -19.227297
305.483462 245.069420 -21.092271
-306.887228 212.333520 -23.877239
233.361195 190.202238 -14.643227
-253.993012 316.100661 -37.496959
-74.110163 364.220116 -7.075459
317.006026 229.643644 -15.966782
-267.520909 158.377152 -2.646050
-26.055601 353.121531 -11.521561
76.569480 228.286145 -11.544919
-403.562390 302.140329 -19.810968
-24.590525 229.300300 -8.999165
111.325890 189.891032 -27.600202
76.715028 190.786470 -19.767799
-59.716935 224.131897 -30.859035
-17.221009 96.950669 -28.166867
-87.175156 40.527076 -7.118097
-214.541581 150.378169 -4.029282
-219.176569 149.771025 -37.014656
-135.445497 29.948500 -32.488480
317.995234 224.607175 -21.499070
-405.486874 216.410121 -37.713928
-235.741841 71.043970 -35.264518
293.896672 236.663760 -14.450518
105.722260 259.184103 -22.713269
41.655716 236.243662 -9.824401
119.185758 221.068490 -12.742769
-204.605567 246.384540 -6.458351
184.225889 186.529642 -19.184497
-246.493458 320.026356 -37.295536
-501.594280 192.208071 -2.499594
-67.924266 169.936951 -7.995464
-182.039476 334.023714 -5.590776
-486.823822 182.911982 -32.608353
190.464206 211.986937 -20.371001
-32.463795 40.468343 -14.329860
-271.375911 148.618536 -34.081809
93.466207 247.929693 -13.506200
-84.600019 382.191772 -10.154862
49.633595 231.636470 -10.787202
-6.133784 243.506176 -31.667829
-280.355458 248.057926 -37.401935
-121.846381 163.955302 -32.659925
222.190369 228.410915 -19.351018
-32.736182 82.135748 -9.107988
40.525351 165.114625 -15.267428
-117.297113 72.290465 -14.215917
-406.654006 184.138309 -35.731437
-21.254668 359.072869 -21.759750
173.761416 207.357672 -24.935158
-229.930496 236.923075 -2.970820
-295.648237 222.549712 -32.743663
30.082881 240.359122 -29.669907
55.122794 243.534685 -28.422056
303.849580 220.240657 -15.200739
252.980566 204.049118 -15.933834
-328.408534 142.749244 -6.707929
298.920611 215.986807 -16.319377
46.549585 299.219804 -28.075675
27.502869 163.557563 -20.779846
235.046595 212.488970 -20.562887
-227.743025 143.278384 -3.587990
-52.358758 368.934081 -11.895678
127.269638 191.513970 -18.706112
21.045199 131.506540 -23.258535
164.431875 179.086153 -27.308032
-239.820033 230.268409 -35.302911
234.084556 239.407306 -20.311922
314.877971 217.351779 -18.006963
-43.746846 145.476330 -32.175871
33.104943 214.386505 -22.633795
-270.898110 229.515083 -2.682884
-312.066948 220.132048 -2.411704
-172.144690 274.252703 -10.162955
-23.120716 307.223032 -30.853866
-38.531620 93.217738 -9.510093
-34.346111 153.792299 -31.726838
-350.369803 322.179204 -12.033179
-246.000951 301.078593 -23.448912
-433.220457 176.952604 -26.661219
-401.339769 244.563095 -19.321789
51.154804 248.089663 -13.082421
-293.668828 178.780834 -24.414930
325.916424 70.151618 -20.061488
-401.312013 243.852131 -19.618719
1.623922 91.758483 -21.082890
39.498453 169.190790 -24.495497
-502.566208 192.126626 -10.277784
-221.282904 339.902608 -3.370425
-133.015035 175.029840 -23.342348
-48.454039 257.776921 -7.178660
-28.495282 261.310629 -31.955937
236.904784 198.592208 -24.468139
42.427448 285.270104 -13.205964
-455.562282 291.944586 -6.222356
-220.126589 213.281358 -27.302246
-267.744364 60.295712 -35.971349
-132.011105 151.992167 -6.749383
109.971229 250.893693 -15.542608
38.481169 151.422854 -20.104286
70.900259 231.320136 -10.485454
-226.838756 335.543317 -33.910407
-220.280567 129.482366 -17.872456
41.500583 237.019482 -10.045717
-61.106926 281.000719 -23.732588
-60.817841 61.772786 -32.414270
-308.587318 101.353714 -4.698562
-427.193204 212.779006 -4.923025
169.126481 206.932414 -13.772175
32.803659 147.569768 -16.283519
-87.896343 173.931983 -27.211417
-5.963366 188.915404 -30.906546
-109.307230 170.843880 -9.098177
268.792072 217.677618 -20.046051
-52.211127 379.303289 -23.338254
-437.317003 211.096221 -3.513501
46.936698 228.537314 -20.252878
-15.477468 257.861112 -30.810744
-61.959340 170.852960 -32.410559
320.648154 100.680794 -17.285413
279.726041 236.850856 -15.038326
-50.129879 372.518678 -11.219373
-45.273766 24.102341 -23.498477
38.448335 254.286926 -11.890905
-23.742352 178.311129 -31.426822
-35.887833 180.091604 -32.757889
-26.155186 98.478884 -13.287100
-5.499302 307.761056 -8.441433
329.828273 81.965365 -18.820472
78.709277 243.459036 -17.344646
8.573510 322.512514 -25.348731
-403.932749 301.928769 -13.373403
-55.133162 25.443279 -14.894360
-410.184275 181.576553 -32.787394
-286.405387 221.514991 -2.849396
-315.060700 220.288630 -5.394373
90.183783 221.943093 -11.714954
-403.256171 302.152962 -13.356351
83.888696 256.220565 -25.237718
-257.380315 294.563784 -21.731315
-227.096876 73.977007 -6.664442
84.116761 225.278019 -11.971653
7.063432 286.872187 -11.677275
74.943766 222.413377 -24.384835
-36.502348 38.216469 -14.136849
-112.704010 19.222199 -13.963184
-444.400602 295.313237 -19.722873
-87.086084 67.579832 -29.056648
291.887953 246.976600 -19.241234
-181.336798 251.973486 -6.727906
-52.195415 193.433832 -15.045075
56.100034 231.712340 -12.131055
-521.571438 274.465549 -37.141638
24.410208 226.977856 -20.294047
86.515365 226.360593 -11.086061
301.998222 244.982757 -22.221667
287.987070 212.113712 -24.478618
-27.178089 312.481205 -32.013715
-50.777152 171.664937 -7.746819
20.842881 315.480351 -13.711379
-175.853539 33.202780 -27.019810
105.593975 258.195369 -25.789351
57.875875 294.764325 -27.578322
-290.866050 339.403045 -17.537384
-356.613646 176.857660 -19.937410
-381.106753 273.344369 -3.031924
-248.917874 302.258487 -24.679428
-28.084325 191.751644 -29.405496
294.777632 160.707077 -15.927175
125.035189 201.866528 -27.548845
-260.687761 323.611743 -2.800184
35.372335 195.124872 -27.831997
342.323212 52.655544 -19.362446
-18.356650 55.966337 -15.403309
17.919929 181.027565 -14.178759
-64.474570 61.216505 -32.850780
283.015927 238.971026 -23.976482
-2.133342 264.128977 -28.003654
-219.472326 336.898895 -34.784153
-25.124919 162.581121 -30.570708
-62.747646 26.416942 -10.609253
341.699778 53.300396 -19.937427
-266.202224 88.963922 -4.941128
-147.348133 327.732939 -12.583089
79.011448 188.709871 -16.653824
-444.480848 182.996336 -2.335448
317.655135 231.537654 -19.083650
302.376658 242.745345 -20.138355
100.240097 244.465914 -19.625331
201.602445 212.927223 -19.903854
-48.170314 57.014625 -31.982275
302.734018 131.654110 -24.002024
-35.576748 198.634028 -15.008054
31.581437 241.378578 -29.577558
30.784815 206.613478 -12.772486
-286.528469 61.957668 -34.588051
221.390117 205.322700 -15.225629
-350.800066 182.604826 -29.976808
-292.161752 93.745034 -34.243308
42.001848 226.565943 -22.703464
307.315109 249.051236 -17.116687
-110.294083 26.153608 -19.789122
-4.614613 231.772803 -28.652808
-249.533583 220.957537 -36.047042
-47.522095 24.049886 -23.951848
-129.137518 172.998326 -8.601068
-61.735884 126.550568 -29.640712
-212.846833 251.428993 -3.378754
-206.444426 229.250070 -36.040810
43.754398 193.121174 -18.365446
-221.943512 52.796026 -13.426330
-246.440012 347.717929 -6.892066
3.778936 210.466006 -23.970792
-334.013877 222.974782 -33.185497
-216.881558 221.866291 -18.825571
-43.198829 358.286563 -8.525871
-242.230282 73.431905 -34.679319
-45.408316 237.686920 -7.436417
-73.751871 174.786544 -28.967431
-13.803365 200.774949 -10.979452
283.145368 240.325021 -22.229570
-333.598981 212.349449 -29.738389
-18.211793 236.616079 -31.462640
-40.397329 375.727157 -14.612239
-124.780104 47.233289 -6.777670
-273.703044 134.239792 -34.845787
26.790215 236.561096 -9.679173
322.063951 232.697565 -17.310248
49.667524 315.248238 -17.796018
9.228945 325.954030 -21.692792
190.196106 212.479868 -17.931627
-306.522230 174.810111 -4.816591
-182.809325 219.564645 -23.919802
-444.400481 297.486626 -31.923720
-339.506481 286.795548 -36.895216
-93.409831 240.268067 -6.693502
228.540286 195.419460 -17.871298
-233.182366 235.521778 -3.501788
57.989601 184.118708 -21.574449
307.416691 231.877181 -15.421250
222.574984 217.239394 -15.574745
55.662322 180.579591 -16.258684
-249.263234 170.401454 -36.820072
-498.508366 188.324657 -24.073219
-0.166265 201.978156 -28.002923
-342.525995 252.771872 -3.840830
161.386840 209.585839 -25.194027
-405.997702 126.317132 -36.230818
289.575635 192.771304 -24.781235
-272.418892 174.858809 -12.654595
284.847369 197.794473 -22.294722
-375.214802 177.015412 -26.653186
-62.618235 178.886112 -27.891582
247.684920 182.276400 -22.940368
145.436755 210.442750 -22.528237
200.024519 196.807720 -27.039831
162.319504 209.838726 -26.206576
185.395424 207.988490 -24.894958
-54.982895 62.349188 -32.186892
111.581447 248.269703 -22.863671
-72.461257 174.156870 -9.619862
-315.971361 138.310877 -34.439186
-19.251861 103.399786 -28.480520
-268.054144 337.313692 -4.314001
-23.293704 296.296132 -27.225530
-264.794716 257.766568 -32.288957
-25.015736 314.344734 -7.910432
261.473231 193.488926 -13.925047
321.521383 256.767483 -19.591750
-503.023795 193.294311 -5.172237
-364.987942 89.017953 -33.848358
-16.814064 238.662920 -31.935731
68.637409 185.188277 -16.349517
-312.657552 140.635991 -32.185523
-76.562277 216.339378 -21.675272
-462.741074 211.525880 -4.694745
-349.796680 215.614607 -12.629714
-101.158256 67.355291 -24.406591
-116.541522 327.594713 -8.126641
320.129396 251.178729 -17.835500
-71.130395 239.085312 -6.757417
-18.675794 176.176893 -31.857337
47.206116 214.777479 -23.761094
-365.613296 310.869587 -20.003317
-295.228521 95.525234 -33.686049
35.482680 304.972093 -28.062009
-6.168641 176.905972 -29.759891
-451.667122 212.002765 -36.513250
-366.211776 307.720707 -26.666279
28.441427 165.208351 -18.707932
50.540827 172.096936 -16.130480
-413.198414 212.824093 -3.883100
-36.933835 181.644724 -31.756054
-203.977043 152.866547 -3.840782
184.355244 209.167267 -20.676492
231.537992 200.116312 -13.677673
-19.442899 254.559171 -32.315893
57.667831 247.774376 -11.752291
-40.760455 231.876452 -32.344115
-80.606563 380.991312 -9.961887
-277.896270 175.861970 -35.620605
318.980022 230.603737 -16.523828
-231.646703 167.015496 -3.559397
-78.439834 32.769118 -32.595709
315.704296 96.027023 -21.086301
-23.940043 195.627893 -12.433750
-339.024936 215.818532 -2.897807
-333.757862 177.362639 -5.271414
-89.736444 24.731790 -31.132504
-2.089497 125.654717 -27.428202
-243.127831 229.839570 -37.716064
-5.825756 116.069040 -27.397571
-241.254300 220.799831 -31.414040
-35.437307 239.064734 -33.012343
-175.244614 142.828065 -6.028292
282.346794 238.884229 -23.763805
28.850509 256.863617 -10.992452
-351.790733 217.780531 -32.777988
-20.082984 101.458846 -13.038302
-72.077722 378.945512 -27.703917
-279.072281 86.467084 -34.198340
-73.736736 173.672041 -27.295189
-299.310682 316.844632 -2.490933
-251.117283 258.228092 -19.577092
-80.343718 220.625879 -28.576309
-80.579337 224.145027 -8.839617
189.524423 182.322876 -13.475957
-47.102696 64.272039 -31.767245
-498.043876 278.746373 -6.657577
-207.937271 176.155719 -17.456001
-181.954060 344.635015 -6.071171
-414.104438 217.334802 -26.588339
-142.741920 24.244646 -8.741684
119.885381 231.884325 -17.658183
-21.244670 309.174239 -8.186267
-30.726691 332.976549 -31.948256
298.552322 243.173294 -20.448144
77.232465 188.084193 -17.494582
-42.188481 363.266969 -9.167912
252.072032 227.832542 -26.117413
-357.183735 81.300949 -32.090532
-81.986846 18.681368 -14.533340
-363.144346 208.693492 -28.228086
-231.610765 259.197845 -35.891847
-332.284265 140.353742 -26.481250
-35.020431 162.237690 -7.585056
-327.306882 211.709465 -29.517414
-336.047425 217.786487 -5.471080
113.464748 197.642257 -14.041888
-33.391147 315.787936 -32.747642
324.526879 72.758483 -22.257932
-304.472456 210.485073 -22.562070
43.462208 295.620139 -11.513563
-137.458285 53.878961 -6.787788
-44.821550 190.496256 -10.793969
108.416930 256.629885 -17.354234
42.239404 165.996721 -23.429171
-19.329630 98.843065 -10.928538
-120.808901 27.974776 -7.843005
-22.837799 106.154268 -12.809986
-502.122565 193.161009 -17.407541
47.745654 312.758116 -25.228194
13.020641 265.193533 -15.132238
317.664845 220.142322 -18.259448
15.818455 323.944095 -24.356931
-334.584797 70.450759 -11.369901
-0.358889 308.111985 -29.916662
-479.403152 212.037027 -37.864689
101.784134 203.070275 -22.968085
-242.884148 177.605032 -10.597233
-14.594165 124.457568 -19.021921
-216.206726 236.367104 -34.304369
-55.645354 62.518175 -7.970711
-273.476691 343.933452 -34.987887
-102.744391 165.907698 -26.206640
-412.545518 179.994748 -5.461351
281.215599 219.641857 -13.612650
-444.215005 106.165325 -26.508308
-246.450682 93.218928 -23.863464
-263.328519 342.988855 -36.027027
64.497230 291.233255 -27.264481
-41.342413 69.783290 -8.427298
-40.484628 232.676380 -8.047136
63.654818 186.794693 -16.360282
22.809419 233.563194 -10.181024
336.716396 65.947350 -20.496368
-178.290691 175.845570 -7.623922
-51.316235 134.418810 -31.230706
-120.078835 28.313671 -13.189558
-459.433854 291.170840 -13.106643
288.474476 194.032849 -25.841894
-186.519266 47.708920 -33.170057
-6.521952 208.365353 -17.230415
-261.264776 301.407382 -11.619019
-332.017645 212.830914 -11.221548
288.802631 193.838422 -25.853502
-92.941989 277.171969 -30.498761
-221.278513 65.395777 -35.822640
-54.405350 346.421078 -7.073477
297.585949 215.169866 -24.984182
-123.292418 172.936747 -9.327449
-77.667172 220.980600 -29.693659
83.786203 207.493438 -27.871520
-173.382759 240.493578 -5.986684
25.769461 141.975169 -14.925876
300.984318 243.067854 -22.219470
-158.905563 178.371567 -28.320221
-89.742775 20.580910 -10.538645
314.245289 237.311749 -16.283316
-235.783796 127.895806 -23.652938
-502.123595 193.989220 -18.160703
-296.422826 220.759465 -36.284850
-16.283253 199.107594 -10.634432
19.156458 212.521524 -24.593982
234.928498 230.799579 -17.453764
-256.828684 170.573319 -35.451560
68.289904 184.480326 -20.298135
-274.814506 300.724820 -31.816283
315.374745 253.334113 -19.785491
38.806404 168.302930 -24.807831
-387.623476 185.691384 -22.441345
-11.406975 187.343331 -31.204136
-28.788338 152.196004 -9.402425
-35.677129 87.077138 -9.253496
173.208549 208.913760 -21.808437
-234.769028 235.360169 -37.080046
-228.262066 247.333933 -3.060209
-16.052551 98.746946 -11.506785
-34.790101 162.732070 -32.821577
-211.059001 180.857126 -27.039546
-267.089783 234.930829 -36.855226
-8.165397 242.659361 -31.815984
-187.883760 158.628955 -6.329975
18.559643 210.844183 -18.769066
51.817273 178.859599 -15.827459
-159.810898 169.805457 -7.441112
-367.345147 83.592456 -32.202334
-22.733477 309.355271 -31.434746
5.900162 230.392554 -12.466524
-211.365981 223.670764 -35.487844
-378.061728 216.330031 -5.713105
-22.368556 53.966771 -14.488729
-79.927691 39.726505 -7.343564
237.370450 189.854103 -14.474764
-221.980730 244.940341 -35.029703
-0.964413 172.582053 -11.471207
-262.146920 314.590759 -37.635237
-62.674743 334.522740 -6.779402
-264.311354 339.877548 -35.897387
-157.253947 25.954567 -8.503838
-28.100994 293.303511 -24.181974
-33.088247 85.015512 -9.411322
-209.242651 164.068071 -3.716668
-33.861066 323.401913 -32.633643
40.181837 233.139234 -10.152855
-387.932424 212.442856 -19.437331
-289.184446 329.462699 -37.400431
-7.654118 194.012053 -8.955134
-271.511399 170.938683 -3.119841
69.943343 272.206110 -27.444893
-46.789363 365.451514 -30.427284
259.487026 230.544955 -25.669054
-334.176724 212.011369 -29.776410
-43.036635 362.658548 -30.212415
-329.933535 182.206706 -29.664681
-62.208587 219.512119 -9.813682
88.877459 281.805240 -25.570926
69.172650 306.643614 -22.370125
-72.989456 379.220167 -27.368552
-112.164040 18.617274 -29.699322
-273.197847 62.443357 -12.952350
23.046580 135.011195 -15.348444
-267.498443 130.735879 -9.594232
-32.716352 96.823243 -9.495546
-252.188133 300.212575 -10.153166
326.450073 236.560097 -20.254870
</DataArray>
</Points>
<PointData>
<DataArray NumberOfComponents='1' type='Int32' Name='ParticleType' format='ascii'>
1
1
1
1
1
1
1
1
1
1
1
1
1
1
1
1
1
1
1
1
1
1
1
1
1
1
1
1
1
1
1
1
1
1
1
1
1
1
1
1
1
1
1
1
1
1
1
1
1
1
1
1
1
1
1
1
1
1
1
1
1
1
1
1
1
1
1
1
1
1
1
1
1
1
1
1
1
1
1
1
1
1
1
1
1
1
1
1
1
1
1
1
1
1
1
1
1
1
1
1
1
1
1
1
1
1
1
1
1
1
1
1
1
1
1
1
1
1
1
1
1
1
1
1
1
1
1
1
1
1
1
1
1
1
1
1
1
1
1
1
1
1
1
1
1
1
1
1
1
1
1
1
1
1
1
1
1
1
1
1
1
1
1
1
1
1
1
1
1
1
1
1
1
1
1
1
1
1
1
1
1
1
1
1
1
1
1
1
1
1
1
1
1
1
1
1
1
1
1
1
1
1
1
1
1
1
1
1
1
1
1
1
1
1
1
1
1
1
1
1
1
1
1
1
1
1
1
1
1
1
1
1
1
1
1
1
1
1
1
1
1
1
1
1
1
1
1
1
1
1
1
1
1
1
1
1
1
1
1
1
1
1
1
1
1
1
1
1
1
1
1
1
1
1
1
1
1
1
1
1
1
1
1
1
1
1
1
1
1
1
1
1
1
1
1
1
1
1
1
1
1
1
1
1
1
1
1
1
1
1
1
1
1
1
1
1
1
1
1
1
1
1
1
1
1
1
1
1
1
1
1
1
1
1
1
1
1
1
1
1
1
1
1
1
1
1
1
1
1
1
1
1
1
1
1
1
1
1
1
1
1
1
1
1
1
1
1
1
1
1
1
1
1
1
1
1
1
1
1
1
1
1
1
1
1
1
1
1
1
1
1
1
1
1
1
1
1
1
1
1
1
1
1
1
1
1
1
1
1
1
1
1
1
1
1
1
1
1
1
1
1
1
1
1
1
1
1
1
1
1
1
1
1
1
1
1
1
1
1
1
1
1
1
1
1
1
1
1
1
1
1
1
1
1
1
1
1
1
1
1
1
1
1
1
1
1
1
1
1
1
1
1
1
1
1
1
1
1
1
1
1
1
1
1
1
1
1
1
1
1
1
1
1
1
1
1
1
1
1
1
</DataArray>
<DataArray NumberOfComponents='1' type='Int32' Name='ParticleID' format='ascii'>
0
1
2
3
4
5
6
7
8
9
10
11
12
13
14
15
16
17
18
19
20
21
22
23
24
25
26
27
28
29
30
31
32
33
34
35
36
37
38
39
40
41
42
43
44
45
46
47
48
49
50
51
52
53
54
55
56
57
58
59
60
61
62
63
64
65
66
67
68
69
70
71
72
73
74
75
76
77
78
79
80
81
82
83
84
85
86
87
88
89
90
91
92
93
94
95
96
97
98
99
100
101
102
103
104
105
106
107
108
109
110
111
112
113
114
115
116
117
118
119
120
121
122
123
124
125
126
127
128
129
130
131
132
133
134
135
136
137
138
139
140
141
142
143
144
145
146
147
148
149
150
151
152
153
154
155
156
157
158
159
160
161
162
163
164
165
166
167
168
169
170
171
172
173
174
175
176
177
178
179
180
181
182
183
184
185
186
187
188
189
190
191
192
193
194
195
196
197
198
199
200
201
202
203
204
205
206
207
208
209
210
211
212
213
214
215
216
217
218
219
220
221
222
223
224
225
226
227
228
229
230
231
232
233
234
235
236
237
238
239
240
241
242
243
244
245
246
247
248
249
250
251
252
253
254
255
256
257
258
259
260
261
262
263
264
265
266
267
268
269
270
271
272
273
274
275
276
277
278
279
280
281
282
283
284
285
286
287
288
289
290
291
292
293
294
295
296
297
298
299
300
301
302
303
304
305
306
307
308
309
310
311
312
313
314
315
316
317
318
319
320
321
322
323
324
325
326
327
328
329
330
331
332
333
334
335
336
337
338
339
340
341
342
343
344
345
346
347
348
349
350
351
352
353
354
355
356
357
358
359
360
361
362
363
364
365
366
367
368
369
370
371
372
373
374
375
376
377
378
379
380
381
382
383
384
385
386
387
388
389
390
391
392
393
394
395
396
397
398
399
400
401
402
403
404
405
406
407
408
409
410
411
412
413
414
415
416
417
418
419
420
421
422
423
424
425
426
427
428
429
430
431
432
433
434
435
436
437
438
439
440
441
442
443
444
445
446
447
448
449
450
451
452
453
454
455
456
457
458
459
460
461
462
463
464
465
466
467
468
469
470
471
472
473
474
475
476
477
478
479
480
481
482
483
484
485
486
487
488
489
490
491
492
493
494
495
496
497
498
499
</DataArray>
<DataArray NumberOfComponents='1' type='Int8' Name='IsActive' format='ascii'>
1
1
1
1
1
1
1
1
1
1
1
1
1
1
1
1
1
1
1
1
1
1
1
1
1
1
1
1
1
1
1
1
1
1
1
1
1
1
1
1
1
1
1
1
1
1
1
1
1
1
1
1
1
1
1
1
1
1
1
1
1
1
1
1
1
1
1
1
1
1
1
1
1
1
1
1
1
1
1
1
1
1
1
1
1
1
1
1
1
1
1
1
1
1
1
1
1
1
1
1
1
1
1
1
1
1
1
1
1
1
1
1
1
1
1
1
1
1
1
1
1
1
1
1
1
1
1
1
1
1
1
1
1
1
1
1
1
1
1
1
1
1
1
1
1
1
1
1
1
1
1
1
1
1
1
1
1
1
1
1
1
1
1
1
1
1
1
1
1
1
1
1
1
1
1
1
1
1
1
1
1
1
1
1
1
1
1
1
1
1
1
1
1
1
1
1
1
1
1
1
1
1
1
1
1
1
1
1
1
1
1
1
1
1
1
1
1
1
1
1
1
1
1
1
1
1
1
1
1
1
1
1
1
1
1
1
1
1
1
1
1
1
1
1
1
1
1
1
1
1
1
1
1
1
1
1
1
1
1
1
1
1
1
1
1
1
1
1
1
1
1
1
1
1
1
1
1
1
1
1
1
1
1
1
1
1
1
1
1
1
1
1
1
1
1
1
1
1
1
1
1
1
1
1
1
1
1
1
1
1
1
1
1
1
1
1
1
1
1
1
1
1
1
1
1
1
1
1
1
1
1
1
1
1
1
1
1
1
1
1
1
1
1
1
1
1
1
1
1
1
1
1
1
1
1
1
1
1
1
1
1
1
1
1
1
1
1
1
1
1
1
1
1
1
1
1
1
1
1
1
1
1
1
1
1
1
1
1
1
1
1
1
1
1
1
1
1
1
1
1
1
1
1
1
1
1
1
1
1
1
1
1
1
1
1
1
1
1
1
1
1
1
1
1
1
1
1
1
1
1
1
1
1
1
1
1
1
1
1
1
1
1
1
1
1
1
1
1
1
1
1
1
1
1
1
1
1
1
1
1
1
1
1
1
1
1
1
1
1
1
1
1
1
1
1
1
1
1
1
1
1
1
1
1
1
1
1
1
1
1
1
1
1
1
1
1
1
1
1
1
</DataArray>
<DataArray NumberOfComponents='1' type='Int32' Name='ParticleTetID' format='ascii'>
271
35019
11053
6377
32249
6608
41376
7023
3170
8425
12848
12236
11107
3314
20883
27276
32781
29222
5725
43895
42110
12422
31726
1752
31219
32913
9442
26484
15550
8139
32046
19530
4541
33791
3589
1281
28164
35251
21235
102
14583
11018
11033
2659
40457
11626
13389
27420
43157
25888
27958
3619
25388
15550
2270
19947
6194
10850
45731
1158
11859
28500
3495
30263
5881
13354
4117
46159
18723
30986
780
16811
12213
45821
4284
7448
25376
28200
25964
32442
6753
25964
30254
44091
36603
13880
743
34099
31095
35294
15659
31221
34927
12108
30700
18920
9434
6411
24151
18579
338
8033
6743
3808
2006
28192
7355
42111
2006
27513
37216
2273
2160
13041
22971
17690
24689
26554
11053
7410
9701
12045
33218
41175
28769
4211
8773
25888
20458
17941
6464
3908
45780
48968
20768
12524
1803
28107
1540
3907
30267
6224
20407
28879
30210
742
15473
34204
3254
16339
94
11469
43856
30230
28847
3588
13200
16807
9522
7454
31505
3588
30125
8686
13375
31504
30137
33796
3102
1266
12031
1022
34549
1947
21660
30261
10690
31365
31505
27621
27478
24151
23801
32370
9660
43156
29840
7964
13165
5294
6743
661
41712
44042
11880
33078
44918
18672
30968
5197
30089
5864
2175
8636
13199
44917
15896
9022
99978
11378
32047
34551
28501
37681
14215
46127
42
25376
39749
9609
36980
13172
8565
30269
32912
11167
5918
9555
15472
13035
3974
8064
2555
33632
12948
11289
35057
11120
7404
2901
13911
2829
18914
19553
30089
11120
1093
1356
23097
8871
26663
32047
26054
28845
37807
9326
7535
12037
9196
12495
36978
4284
46449
32640
36458
48644
14579
19217
5900
7220
45712
2213
36478
9364
33237
1072
13063
33651
45803
27932
45712
45749
20480
31943
19947
8837
104
12674
20100
6350
15179
32892
30788
2270
11339
6260
43890
8833
18099
5762
12875
12988
4017
30787
16347
2822
30699
7983
8565
36012
2929
11429
7984
44089
31560
16256
16339
2522
45747
36978
17347
28192
17275
635
7341
32048
4268
499
35991
652
12962
11864
16987
11370
14488
14178
9554
2839
8894
30089
28227
12883
94
1632
17745
19956
19820
8413
23844
23837
25046
23990
7921
9404
1423
16264
3063
40129
24143
13135
34551
99978
4503
26003
11335
2760
3397
8493
9208
20813
11120
11107
34458
22675
42113
9442
30244
8913
14441
43154
30988
94
11181
688
2276
26056
30480
40454
45641
8356
11480
9161
42651
9274
14172
3203
17931
8007
892
16796
30408
8236
6491
9881
29838
16527
17265
29168
26663
40655
7383
12848
11182
7834
36478
2713
5894
8680
11111
36478
3308
12939
17248
25966
13037
22820
35490
289
37572
34551
7320
2757
32641
8884
2276
7449
19553
32879
31218
21958
43893
8725
30787
37216
16031
2928
327
18725
37935
15659
10782
94
20821
9408
18933
5881
2773
32875
33594
9077
7592
24151
31181
9465
5276
24236
14585
26484
10797
12353
11896
12729
12689
14027
4941
18725
2612
17059
25888
15434
17764
19551
19531
30000
2316
27371
11120
2910
11876
19984
30611
29225
1632
1272
18832
31092
6899
15717
6737
36927
</DataArray>
<DataArray NumberOfComponents='3' type='Float32' Name='vels' format='ascii'>
1.018547 0.049134 0.001511
5.412621 -0.286759 -0.006797
0.908773 0.265833 -0.003124
0.216934 0.034907 -0.000609
5.590862 3.159643 -0.010000
1.425948 -0.196509 -0.002737
5.474676 -0.195510 0.010108
0.928626 0.155317 0.000288
0.747815 0.029674 -0.001006
1.077928 0.153390 0.001385
1.628921 0.924247 0.000908
0.270314 -0.078355 0.002410
0.372987 0.003389 -0.000569
0.043020 -0.008196 0.000145
1.235298 -0.063615 0.000637
3.934552 4.776815 -0.135311
2.148803 0.861591 -0.001878
1.711142 -0.875402 -0.000770
0.155063 0.025377 -0.000757
6.089043 2.073036 0.081707
3.020710 -5.268058 0.042837
1.236069 -0.282596 -0.001156
3.133680 1.606032 -0.004041
1.423693 -0.103518 -0.000862
3.891984 4.118447 -0.034271
2.409661 1.085365 -0.002296
2.037623 0.038211 0.005112
6.546824 1.659863 0.013905
0.780009 0.162252 -0.000202
1.308524 -0.213233 0.000170
1.964385 0.969561 -0.004550
0.891297 -0.068122 0.000238
1.036577 -0.974738 0.002391
3.513639 -1.480183 0.003517
0.207092 0.060964 0.001154
1.614958 0.099870 -0.000444
8.100401 -3.787479 -0.025403
6.022115 1.760322 0.155519
1.304319 -0.122607 0.000124
1.004748 1.265856 -0.000331
1.635053 0.210134 -0.000027
0.648522 -0.053770 -0.000181
1.008018 -0.094720 -0.000084
1.418470 -0.268228 0.000155
1.570951 0.879944 -0.004719
0.827989 -0.007292 -0.005226
1.342351 -0.296478 0.000291
2.113172 0.837632 -0.001771
1.862504 -2.878715 0.026770
3.520430 -0.660899 -0.000769
4.468834 -5.087171 0.200551
1.453071 0.160722 0.000975
11.401282 -0.130521 0.006773
0.851907 0.178163 -0.000401
0.001631 -0.003448 0.005908
1.752574 0.679803 0.001718
1.298278 0.236276 -0.000989
-0.001020 0.000022 0.001884
8.504364 0.218088 0.090767
1.078957 0.683033 -0.000069
1.489949 -0.162044 -0.000055
2.958574 -2.979315 0.006393
1.377090 -0.057198 -0.001539
2.395737 -0.069781 0.003282
1.765832 -0.030087 -0.000575
0.911062 0.093690 -0.000196
1.380426 0.007614 0.000358
2.514640 4.495849 -0.141598
0.819005 1.065114 0.000771
2.452899 2.288553 0.013343
1.362704 -0.045562 -0.002265
0.013822 0.000145 -0.006424
1.176277 -1.300834 -0.000410
9.972311 -0.048853 0.023633
0.908889 0.063689 0.000666
0.033304 -0.000083 0.000213
2.572115 -0.271755 0.000525
3.334978 -1.187743 0.000869
2.409334 0.207625 0.006116
5.774977 1.856752 0.000128
1.250615 -0.177218 0.004987
2.070844 0.373524 0.006612
1.913003 -0.563682 -0.001158
2.354122 2.019354 0.000761
5.983556 4.495418 -0.034749
1.490121 -0.161979 0.000732
1.512112 -0.347764 -0.000739
11.069867 -3.153954 -0.042316
1.560553 2.018455 -0.000860
9.822100 -0.256281 -0.001469
0.652721 0.044251 -0.000740
3.797616 3.918372 -0.032930
1.589778 0.141012 0.004971
1.179806 0.696432 0.000586
3.616276 0.017146 0.002546
0.998348 0.040591 0.000285
0.782010 0.030128 0.000474
1.289272 0.180209 -0.001256
1.382729 -0.764027 0.000300
0.784216 1.056596 -0.000601
1.260836 0.843050 -0.000963
0.204797 0.059684 -0.000193
1.182238 0.201636 0.001768
-0.001311 -0.000016 -0.000485
0.009348 0.001250 -0.005909
3.339935 -1.494191 0.002364
0.052443 -0.000035 0.000867
3.527729 -5.094170 0.078090
-0.008359 -0.001213 -0.004028
1.110283 1.407527 -0.000430
2.648183 2.245893 0.007780
0.001557 -0.001112 0.001281
0.970814 0.232789 -0.000435
1.663138 -0.012702 -0.001674
1.259952 -0.079633 0.000331
1.448714 -0.175708 0.000432
6.539672 2.850744 -0.007123
2.244228 -0.716100 0.004079
0.462525 0.139490 -0.001278
1.051171 0.011074 0.001545
0.786858 -0.221964 0.001552
1.408116 -0.047490 -0.000982
1.838828 -3.384735 0.066224
1.648127 2.185251 0.001781
3.980146 -1.370738 -0.004409
0.248930 0.060299 0.001060
2.311751 -0.304390 -0.000146
3.465394 -0.669156 -0.000513
1.563489 0.017441 0.001780
1.339724 0.921921 0.000559
0.380820 -0.065140 0.000563
0.239207 -0.001776 0.001458
9.268317 -0.135767 -0.003267
1.862469 2.208075 0.000315
1.383141 0.087987 -0.005074
2.039547 1.001276 -0.000508
1.384193 0.025333 -0.000151
4.338313 1.001299 0.001977
0.976682 -0.136056 0.002465
1.267969 -0.057909 -0.001130
4.286225 -0.392460 -0.000335
1.791623 -0.261275 -0.000664
1.187349 0.684527 0.001658
4.399163 -9.404476 0.024089
2.843011 1.263506 -0.005917
1.649234 -0.461719 -0.000544
1.413193 0.452781 -0.001095
2.675863 -0.738206 -0.000415
1.770558 0.970299 0.000449
1.443452 0.813134 -0.000232
1.068100 1.258224 -0.000533
1.628188 -0.795519 0.000581
3.616907 -5.900154 0.017054
3.955588 -2.421857 -0.007807
2.464339 -1.215095 0.001188
0.047032 0.013888 0.000846
1.558036 0.271101 0.000448
0.301081 0.001601 -0.002444
0.741919 0.021920 -0.000618
0.135690 0.000876 -0.000998
4.487689 -2.340297 0.006493
0.030080 0.008884 0.000490
3.400916 -2.247786 -0.004584
2.349458 0.436564 0.000938
0.842525 -0.160508 0.000164
4.399822 -2.308257 0.005911
2.089220 -0.588616 -0.000741
5.517177 -1.989281 0.008666
1.117367 0.607423 -0.000236
1.543666 -0.120716 -0.000059
0.281829 0.083406 0.003319
1.482178 0.254072 -0.005994
2.579410 1.111554 -0.002464
1.607116 0.154219 -0.001522
1.383073 1.069329 -0.003662
3.809326 -0.748843 -0.001266
-0.003650 0.001602 0.000127
3.484057 0.394358 -0.000715
4.155786 -2.429279 0.000521
2.413149 1.101552 -0.002163
2.687708 -0.996927 0.013017
1.130119 -0.697407 0.000328
1.215342 0.770680 -0.000320
2.416021 -0.713896 -0.001037
1.243750 -0.331314 0.001090
1.952229 -2.704893 0.014076
1.308333 -0.731929 0.000568
0.113308 0.033125 -0.000548
0.073462 -0.000047 -0.000384
0.016383 0.002648 -0.001586
0.206750 0.034111 0.000851
1.262994 0.575501 -0.000421
2.702399 -8.854315 -0.055955
8.222754 -4.336241 -0.006963
0.915642 0.207277 0.000325
3.275044 1.284064 0.000607
4.069833 -1.992665 0.832998
0.802177 1.085410 0.000568
2.425093 1.987949 -0.001028
1.570194 0.675882 -0.001076
2.659158 1.103788 -0.001338
2.025533 -0.405200 0.000864
1.516410 0.357841 0.000052
1.440324 0.958108 0.000255
1.023970 0.122528 -0.003600
4.012303 -2.067008 0.710364
0.371696 -0.074062 0.000027
1.956380 0.292277 0.003948
7.024632 0.987046 0.077015
0.021811 -0.000318 0.001440
2.050145 1.103193 -0.003763
2.440172 1.091244 -0.002204
3.580158 -3.182507 0.010133
8.528447 2.691159 0.084616
1.171735 0.899294 0.000508
3.790952 -12.121544 0.014087
1.729370 0.721345 -0.000680
2.302596 -0.279261 0.000685
2.731398 0.516191 -0.001046