<VTKFile type='UnstructuredGrid' version='1.0' byte_order='LittleEndian' header_type='UInt64'>
<UnstructuredGrid>
<Piece NumberOfCells='500' NumberOfPoints='500'>
<Points>
<DataArray NumberOfComponents='3' type='Float32' Name='Position' format='ascii'>
499.455296 195.210462 -4.673423
1029.059357 188.209033 -16.808274
-237.904557 351.360454 -6.051814
544.460511 259.191748 -6.409545
1029.278797 232.304881 -20.074967
-200.325337 120.901303 -2.108728
1029.253611 152.748402 -21.930599
715.764469 248.543878 -5.736256
497.602312 202.075694 -4.434149
-122.916532 280.878395 -4.964227
1029.136333 154.676584 -29.201451
27.431052 84.714032 -30.216296
-178.280518 222.908922 -5.989390
496.169074 65.393190 -4.473919
566.926201 208.972688 -4.445728
1029.359902 252.147987 -15.006536
814.679555 176.025886 -6.587395
1029.087137 262.783777 -11.868301
-191.648464 311.304764 -6.783916
1029.193912 138.980634 -19.474711
785.319924 147.749419 -13.137864
280.377574 164.078593 -3.809328
1029.076102 228.539705 -26.569211
460.843230 396.398485 -3.955324
1029.103216 249.678682 -17.080837
1028.990499 208.533237 -16.447437
614.460934 164.909927 -17.594070
1029.136178 186.426719 -8.694585
2.707723 294.385178 -37.565918
581.838984 368.214152 -7.581949
594.493054 215.312735 -12.255049
263.416827 190.633801 -2.658330
950.754349 279.675439 -8.662371
945.637742 218.657122 -9.864659
422.306524 386.274159 -3.543799
725.425590 187.434024 -7.835509
1029.074164 155.183680 -27.112406
1029.321351 153.281068 -16.377951
464.292836 90.325324 -32.603826
1028.982668 142.206514 -26.628187
705.496200 55.060071 -6.246820
535.209277 86.988402 -2.885209
9.503508 188.671014 -37.017085
941.816392 122.898417 -29.795156
661.076473 214.552391 -17.582152
-272.200320 218.298747 -37.618627
0.054477 120.228236 -35.184965
771.421976 215.727698 -8.994842
1029.339088 256.934836 -22.392138
622.311077 188.900059 -6.985022
1029.096555 251.048780 -9.627166
578.322332 255.971932 -5.672345
1029.044092 190.888146 -17.070591
69.482508 273.193271 -37.255565
-491.822200 186.634620 -1.983937
1029.140656 185.673421 -7.749712
323.761473 304.810676 -5.492034
-293.527252 182.330041 -31.555530
1029.281029 251.617953 -16.541149
593.612903 6.294373 -11.667121
0.560266 176.186429 -33.967792
1029.144067 251.298274 -9.433218
509.725329 388.687857 -8.431556
759.783277 184.100998 -10.670476
1029.099325 207.296483 -29.207397
0.327663 260.625088 -37.434098
499.995836 101.734812 -36.611955
1029.003818 260.121252 -19.353480
1029.219105 141.565174 -7.227381
1029.030335 140.847806 -10.327024
1029.210581 151.177371 -10.058554
-334.704458 182.965151 -34.935752
422.743582 386.163063 -3.664093
1029.370072 249.889205 -17.917543
345.051970 242.872460 -3.028765
568.714421 204.104174 -29.961430
753.175688 216.093863 -28.788488
1029.088630 226.583231 -26.791639
608.476688 191.445526 -8.222398
622.777190 181.845590 -13.342569
510.531418 51.395094 -6.237044
1029.075219 199.084609 -13.594524
1029.306689 250.607125 -21.757990
1029.275264 140.263570 -17.033113
1029.110714 228.986199 -22.802082
482.850582 60.336379 -4.283888
929.852909 290.578206 -10.571614
1029.150350 191.275146 -16.086105
1029.304192 140.303527 -20.675616
1029.296586 152.742705 -21.728450
44.259878 234.184866 -35.288817
1029.317875 251.504023 -16.457303
1029.142010 196.584875 -14.344229
1029.292726 155.217574 -29.018318
1029.213633 188.409014 -16.858498
293.590913 215.613355 -2.678070
27.839646 228.015107 -2.506703
633.731228 260.670490 -6.216595
1029.337316 249.376128 -23.538960
1029.006290 140.497051 -6.606818
1029.101994 154.322595 -29.456101
-74.184232 385.741389 -12.163910
1029.023898 231.951962 -20.916878
-432.561693 176.881510 -26.667171
-389.236993 245.960379 -20.014748
1029.244989 230.300666 -9.687840
646.789736 169.790717 -20.579250
1029.318341 165.992030 -17.959244
-307.963096 258.084012 -19.840726
1028.977543 140.299234 -17.001177
1029.189046 140.141349 -19.420439
-501.873462 192.347967 -9.668034
231.567326 247.459407 -3.235295
1029.088515 191.145182 -20.070877
1029.119364 214.611647 -7.296110
1029.162892 231.219450 -28.952026
363.135328 74.317378 -21.572424
1029.069190 250.884586 -9.429735
-221.620280 358.523199 -5.564518
861.633346 179.053270 -22.337610
2.515818 79.771696 -35.904943
691.073737 161.226338 -4.944260
1029.203531 259.133438 -14.979347
1029.386622 140.349597 -17.517165
694.058311 214.687429 -8.834118
121.970006 222.088667 -33.792358
377.639320 41.467018 -2.348081
600.561576 213.557885 -7.158289
1029.257480 229.715106 -21.899225
1029.221177 141.549552 -28.168380
-33.263640 115.797480 -4.926989
-235.396798 214.086631 -5.305900
1029.184340 250.622315 -9.354484
1029.115912 138.104862 -11.754595
1029.020587 188.147850 -23.823336
1029.259073 166.069571 -28.080659
1029.121508 190.466885 -8.136797
869.383246 217.952322 -17.703345
422.237684 386.356569 -3.913509
-238.596442 212.590992 -3.820242
1028.976683 198.275371 -20.143932
1029.216848 231.067388 -27.441933
511.847380 113.200489 -36.491155
1029.134359 189.002731 -8.993922
1028.982673 228.031097 -11.093356
591.741412 367.109957 -6.551267
566.127183 8.134462 -20.007695
1029.064718 230.128527 -9.890916
1029.261154 171.158954 -29.184869
381.472231 52.266270 -10.001146
1029.152980 136.636137 -10.985803
657.256917 340.398057 -6.195516
1029.072949 189.720784 -13.672791
1029.126679 229.823613 -11.368067
1029.116635 266.379400 -22.171789
125.053034 232.612027 -11.001071
1029.194718 140.926378 -10.790143
-160.408924 180.035358 -31.662203
247.236381 199.993890 -2.927820
134.407434 194.277745 -5.554833
701.397349 220.398250 -12.340055
70.939349 308.205787 -13.332715
1029.165082 249.277036 -18.436584
835.426839 240.464645 -17.202154
531.784327 77.262307 -2.679999
874.016439 215.046591 -13.785951
1029.162656 250.509853 -9.214404
313.841350 171.490531 -26.581468
509.068750 3.957427 -13.181072
545.224949 10.206299 -12.407179
-128.314695 385.589030 -18.929114
1028.993105 141.600352 -27.791848
1029.312762 229.305865 -15.668280
595.117984 225.813988 -4.429302
1029.207264 189.143456 -11.935037
776.290977 180.193830 -12.382236
-521.959433 274.738835 -37.132086
1029.232534 189.628657 -19.390733
741.552742 187.364719 -9.552092
1029.259166 229.986926 -17.220021
1029.103068 198.247599 -27.320136
1028.989402 252.799752 -25.582654
1029.160703 187.417509 -7.500706
1029.086343 261.955222 -10.171866
90.118623 179.366799 -26.218939
1029.196213 265.861447 -23.563606
1029.060599 250.741090 -23.158830
547.646792 364.799289 -11.184178
-240.228687 175.742922 -19.933976
-225.616101 300.534364 -3.447945
951.598192 242.335835 -21.254667
1029.139103 188.001014 -24.091368
1029.296602 165.116357 -11.684768
655.934834 214.386114 -28.485912
209.721656 214.298910 -2.493610
1029.246652 152.097065 -21.274371
1029.238727 166.185289 -18.220476
589.685587 6.239968 -12.396048
1029.317852 166.310171 -11.196974
1029.074538 141.753036 -28.112455
1028.978325 226.681346 -19.098767
1029.070636 229.001683 -26.946571
138.352255 212.305126 -34.890020
1029.076318 154.088305 -26.648681
612.326850 8.926215 -7.641361
1029.134247 165.425647 -17.916420
276.067733 173.304422 -4.627175
1028.993193 251.027087 -9.360745
1029.191202 138.906774 -12.100933
-216.976206 180.500789 -2.596561
734.791364 213.465658 -15.885571
1028.987540 207.207378 -15.083185
1029.256612 249.121303 -18.632310
1029.083419 261.565138 -18.628778
1029.186294 141.644426 -26.875536
1029.125480 163.915666 -20.865933
1029.067550 187.903334 -11.437351
653.547756 214.418702 -28.234743
1028.977323 191.701105 -10.560304
-25.446232 31.227346 -34.480808
1029.130325 227.908705 -11.363294
333.654886 82.383028 -29.411584
-24.966862 115.912330 -34.185288
1028.994581 191.539402 -20.807746
1029.089074 228.582486 -11.134421
1029.032689 139.337093 -11.491075
736.238468 180.484434 -26.262637
316.578161 123.260880 -36.901960
567.812706 8.099586 -20.076543
1029.118109 188.779216 -7.828990
1029.058995 154.448558 -27.720059
356.304507 263.269124 -3.233262
358.536770 246.630465 -35.826474
1029.130825 162.909080 -15.085360
1029.287445 139.578995 -9.591735
244.463552 324.080384 -6.824064
1029.138655 191.579951 -20.417899
587.853431 220.177047 -25.791374
619.053340 180.217920 -19.817356
905.289497 297.774383 -9.572689
283.343410 161.953028 -34.816912
735.682773 186.096761 -7.350351
1029.114565 185.116480 -26.917102
1029.027159 188.449629 -8.741109
1029.088616 227.990706 -18.525192
521.169235 146.050839 -23.860493
623.070432 190.710258 -29.958478
753.630619 333.448939 -8.154101
711.655647 57.388965 -6.643192
-0.987801 156.848730 -34.189114
887.850708 216.140590 -8.137629
1028.438877 205.657263 -17.011819
1029.000713 266.680231 -14.841078
1029.019230 264.554280 -17.341043
1029.020443 260.195748 -17.082613
308.558269 141.413840 -4.362032
627.159797 168.077405 -23.983426
-143.641760 383.606334 -30.745039
-51.681006 301.856273 -36.867204
573.817679 186.465920 -5.954549
318.493849 188.768815 -18.168270
387.889294 245.114332 -0.602773
1028.992364 140.724015 -18.226469
860.201820 191.111465 -14.508144
1029.288175 250.532170 -11.240318
1028.982169 140.578835 -8.523235
-0.003605 205.786605 -36.878971
-498.958896 188.820297 -24.883347
1028.991480 184.793799 -26.995024
-162.764798 279.590066 -4.201630
1029.263509 251.378450 -21.648380
-405.728821 126.074182 -35.841012
1029.055936 181.494904 -18.997324
311.067794 157.579459 -11.246064
1029.168282 189.604127 -16.148881
-158.566948 174.596356 -26.111605
1029.060040 188.469406 -26.483053
898.666443 162.783310 -19.747412
1029.062033 251.332961 -17.754174
740.894773 219.951205 -19.159708
1029.058731 251.612451 -21.507725
1029.209896 251.530546 -18.765869
1029.226357 141.141672 -26.962504
1029.035831 258.818714 -21.723534
1029.137454 191.840832 -7.148699
-51.155282 117.585040 -33.768310
1028.992617 143.275617 -33.765066
130.615129 223.131684 -2.653910
1029.052570 231.238678 -23.593649
532.998874 255.603378 -26.298063
656.294507 333.770709 -6.247674
1029.019086 186.784368 -8.920433
1029.062089 229.606706 -11.842059
-492.747792 185.894632 -3.493460
0.160339 90.214523 -33.945459
737.191793 186.297572 -29.604879
1029.055737 139.105929 -11.640209
-71.479811 110.687157 -31.429854
1029.084872 192.212440 -20.238293
-272.797390 212.086928 -4.986179
-139.651393 217.369550 -12.669678
1028.996143 151.715862 -17.273462
1028.994285 231.174448 -6.028807
411.591621 245.039275 -3.410562
568.474247 205.486504 -5.224021
1029.256785 153.702561 -22.613375
1029.274629 189.295571 -19.419725
662.202599 362.163068 -15.530159
-6.868215 134.788834 -33.483028
1029.096721 252.600993 -23.946544
1029.235200 153.879772 -27.568629
-297.604066 212.279521 -36.494523
241.270587 293.508335 -26.783170
1029.273908 151.732683 -17.452964
1029.014351 139.407205 -11.818104
-199.678120 215.605481 -4.394553
1028.984348 184.826144 -32.941579
497.925541 68.228366 -3.798567
1028.980649 249.835231 -21.175183
701.366485 187.347022 -11.240469
1029.188393 230.634547 -28.444128
1029.080799 230.197874 -9.454699
593.043714 214.545015 -30.917422
558.718035 385.074106 -7.507283
298.678555 182.913404 -35.502060
1029.008500 206.564596 -15.792315
489.060178 84.508795 -2.358750
1029.067852 141.603446 -27.818469
1029.069269 165.176413 -18.524279
1029.133526 191.427176 -10.540003
4.784278 222.788592 -3.015275
-138.089123 174.309222 -5.576355
533.896922 5.796461 -25.388449
1029.220334 140.786220 -22.054353
10.491807 233.232531 -37.710851
1029.175277 141.288491 -25.554240
351.899232 79.335608 -33.101222
722.380027 255.843965 -34.707799
549.127727 93.226088 -4.841387
1029.228811 229.056026 -21.423484
1029.263211 229.727649 -8.828450
-73.092950 218.143544 -32.214793
1029.255636 140.847097 -10.347196
932.134289 287.412241 -22.109890
14.780160 146.844093 -34.213941
1029.093018 189.431262 -22.359625
79.341453 280.575002 -2.569409
792.251829 244.465024 -16.809893
362.609236 70.866437 -25.631161
568.216912 171.387610 -11.145757
1029.146176 187.848913 -9.040993
1029.240783 141.515258 -27.379984
-294.798455 337.519504 -5.961539
1029.025452 191.423095 -15.451683
273.990247 308.701745 -5.914409
-218.910397 219.088792 -26.182641
489.234755 3.894361 -10.097892
1029.083022 262.773429 -19.497108
1029.086616 250.371744 -7.973811
1029.037398 262.781573 -26.167907
1029.137774 227.226450 -10.712844
1029.144133 141.824809 -12.094427
755.161727 336.257200 -7.739837
1029.072346 230.843770 -24.585391
35.505475 118.111245 -31.683529
551.871903 5.731230 -11.531988
316.586299 117.699071 -27.655151
373.185190 266.679364 -32.970592
-186.401513 116.971390 -26.111950
663.295944 124.771670 -6.104038
508.551677 136.443088 -23.393826
-173.742889 220.488605 -5.661312
1029.220458 185.847851 -11.251454
1029.284457 252.216365 -23.460776
1029.129728 164.701498 -20.667179
591.256142 167.648786 -19.594658
387.767197 289.168895 -6.723491
845.950945 106.987596 -6.746979
1029.029557 189.622144 -9.059488
1029.097936 262.061277 -16.866182
1029.292222 139.341657 -20.537809
1029.028994 140.404660 -8.938870
554.172266 10.141972 -6.850880
1029.005844 140.255329 -9.204981
-501.170965 193.353653 -16.412304
422.364659 386.234165 -5.736371
1029.087163 227.049554 -11.271518
642.852661 187.597819 -19.212450
720.703285 358.785557 -18.118200
-73.419694 10.944348 -11.670434
1029.284670 252.620977 -25.589771
-345.953836 212.113834 -37.908040
1029.146218 191.360374 -20.366622
817.255572 176.087357 -9.030127
1028.984297 152.167014 -15.410153
338.230371 234.798880 -34.403726
1028.977495 139.629717 -6.673073
5.844095 336.637950 -34.888121
1029.217982 189.239624 -24.197824
-199.792624 177.381974 -5.572698
670.543188 214.630614 -9.177453
-290.842609 60.563094 -26.372941
1029.331110 152.525238 -20.330589
41.797786 321.111862 -36.114557
1029.187656 251.079710 -22.841616
1029.318670 140.222168 -7.695200
353.056415 78.373715 -5.094173
1029.189180 152.203793 -9.786901
759.829272 184.105768 -10.611092
1029.020630 165.105675 -19.151886
679.405717 170.873630 -6.932995
1029.190473 154.549839 -27.821762
1003.207484 133.462097 -6.777585
-181.135272 371.230580 -12.624312
1028.992859 189.529076 -21.214293
1029.200837 141.506837 -28.207214
1029.122687 189.627835 -12.980992
692.672303 254.439875 -8.242439
269.842424 206.236327 -11.818635
1029.067094 190.358882 -21.601804
1029.149717 228.931587 -26.989552
59.816448 180.705170 -35.657882
381.058864 363.177624 -5.418661
1029.126705 199.221430 -20.196635
854.096606 178.178991 -6.975527
1029.154759 191.002642 -23.581673
1029.118563 166.532241 -28.691753
531.228555 213.692077 -4.477400
1029.114841 139.297521 -11.567960
411.558032 245.110662 -3.276845
1029.136270 191.163161 -23.318089
543.720030 6.421096 -10.535363
1029.105731 205.069380 -15.635904
1023.257996 150.872172 -19.358489
-501.378277 193.595191 -16.889099
310.835332 186.187320 -36.381235
1029.120078 187.702432 -9.310782
1029.163817 184.148452 -21.974278
1029.312471 248.234907 -9.873754
291.425918 190.691909 -35.500919
1029.328978 136.843542 -18.881703
585.300544 334.502711 -24.826844
1029.222021 229.310936 -11.098716
1029.172426 140.413768 -21.018412
469.186054 84.016260 -16.864798
1029.118423 167.132526 -29.081801
1029.032436 162.086172 -8.090933
943.082084 122.277128 -6.650177
1029.236015 251.014534 -17.909152
82.757378 225.751947 -37.092842
340.904585 259.758341 -3.145730
1028.977966 139.590846 -10.513834
1029.013381 155.959542 -27.775785
374.980632 240.120477 -18.859249
79.918075 227.800201 -36.789176
1029.030631 206.195502 -29.210784
507.661406 141.684968 -6.925341
1029.122752 191.332256 -15.803695
1029.022018 152.098673 -9.721617
1028.979961 185.456998 -7.675500
-32.534200 22.223930 -31.739505
1029.034602 250.235039 -24.035320
737.501339 179.327781 -12.160714
331.281977 95.981637 -36.210306
-217.950754 218.811001 -6.108544
1029.121923 139.486113 -10.572183
738.879120 64.003912 -6.216262
1029.016906 187.725508 -9.274138
471.209724 225.484283 -26.775654
1029.281845 164.317919 -10.568704
1.211833 294.900389 -37.636514
626.960935 334.421647 -6.019551
3.676942 328.514332 -35.909506
447.529170 2.755627 -6.005477
400.884835 273.474580 -5.355285
1029.080642 139.809185 -8.448109
487.679447 91.135893 -2.336521
1029.190996 251.339016 -24.093351
683.491436 215.003411 -8.357013
-155.124822 213.802885 -19.314703
73.006128 301.237054 -37.233159
1029.091622 188.026010 -8.426024
317.522960 107.512057 -2.838984
1029.233175 246.857364 -23.058501
551.511364 384.564053 -26.205541
1029.182799 226.565878 -26.855878
490.809763 104.521797 -24.459213
984.340495 274.268973 -24.034834
601.458135 159.314783 -22.556386
866.813752 178.522618 -6.801935
1029.147602 265.728428 -24.808093
1028.979811 266.614511 -21.884949
562.929788 389.226502 -23.975660
89.750749 178.103703 -26.350775
378.075462 7.721897 -0.963226
1029.072314 141.391280 -11.738849
522.694514 62.047386 -5.292337
922.540413 114.179328 -5.925788
569.957522 328.106183 -6.802671
779.701696 215.576821 -17.526436
</DataArray>
</Points>
<PointData>
<DataArray NumberOfComponents='1' type='Int32' Name='ParticleType' format='ascii'>
1
1
1
1
1
1
1
1
1
1
1
1
1
1
1
1
1
1
1
1
1
1
1
1
1
1
1
1
1
1
1
1
1
1
1
1
1
1
1
1
1
1
1
1
1
1
1
1
1
1
1
1
1
1
1
1
1
1
1
1
1
1
1
1
1
1
1
1
1
1
1
1
1
1
1
1
1
1
1
1
1
1
1
1
1
1
1
1
1
1
1
1
1
1
1
1
1
1
1
1
1
1
1
1
1
1
1
1
1
1
1
1
1
1
1
1
1
1
1
1
1
1
1
1
1
1
1
1
1
1
1
1
1
1
1
1
1
1
1
1
1
1
1
1
1
1
1
1
1
1
1
1
1
1
1
1
1
1
1
1
1
1
1
1
1
1
1
1
1
1
1
1
1
1
1
1
1
1
1
1
1
1
1
1
1
1
1
1
1
1
1
1
1
1
1
1
1
1
1
1
1
1
1
1
1
1
1
1
1
1
1
1
1
1
1
1
1
1
1
1
1
1
1
1
1
1
1
1
1
1
1
1
1
1
1
1
1
1
1
1
1
1
1
1
1
1
1
1
1
1
1
1
1
1
1
1
1
1
1
1
1
1
1
1
1
1
1
1
1
1
1
1
1
1
1
1
1
1
1
1
1
1
1
1
1
1
1
1
1
1
1
1
1
1
1
1
1
1
1
1
1
1
1
1
1
1
1
1
1
1
1
1
1
1
1
1
1
1
1
1
1
1
1
1
1
1
1
1
1
1
1
1
1
1
1
1
1
1
1
1
1
1
1
1
1
1
1
1
1
1
1
1
1
1
1
1
1
1
1
1
1
1
1
1
1
1
1
1
1
1
1
1
1
1
1
1
1
1
1
1
1
1
1
1
1
1
1
1
1
1
1
1
1
1
1
1
1
1
1
1
1
1
1
1
1
1
1
1
1
1
1
1
1
1
1
1
1
1
1
1
1
1
1
1
1
1
1
1
1
1
1
1
1
1
1
1
1
1
1
1
1
1
1
1
1
1
1
1
1
1
1
1
1
1
1
1
1
1
1
1
1
1
1
1
1
1
1
1
1
1
1
1
1
1
1
1
1
1
1
1
1
1
1
1
1
1
1
1
1
1
1
1
1
1
1
1
1
1
1
1
</DataArray>
<DataArray NumberOfComponents='1' type='Int32' Name='ParticleID' format='ascii'>
0
1
2
3
4
5
6
7
8
9
10
11
12
13
14
15
16
17
18
19
20
21
22
23
24
25
26
27
28
29
30
31
32
33
34
35
36
37
38
39
40
41
42
43
44
45
46
47
48
49
50
51
52
53
54
55
56
57
58
59
60
61
62
63
64
65
66
67
68
69
70
71
72
73
74
75
76
77
78
79
80
81
82
83
84
85
86
87
88
89
90
91
92
93
94
95
96
97
98
99
100
101
102
103
104
105
106
107
108
109
110
111
112
113
114
115
116
117
118
119
120
121
122
123
124
125
126
127
128
129
130
131
132
133
134
135
136
137
138
139
140
141
142
143
144
145
146
147
148
149
150
151
152
153
154
155
156
157
158
159
160
161
162
163
164
165
166
167
168
169
170
171
172
173
174
175
176
177
178
179
180
181
182
183
184
185
186
187
188
189
190
191
192
193
194
195
196
197
198
199
200
201
202
203
204
205
206
207
208
209
210
211
212
213
214
215
216
217
218
219
220
221
222
223
224
225
226
227
228
229
230
231
232
233
234
235
236
237
238
239
240
241
242
243
244
245
246
247
248
249
250
251
252
253
254
255
256
257
258
259
260
261
262
263
264
265
266
267
268
269
270
271
272
273
274
275
276
277
278
279
280
281
282
283
284
285
286
287
288
289
290
291
292
293
294
295
296
297
298
299
300
301
302
303
304
305
306
307
308
309
310
311
312
313
314
315
316
317
318
319
320
321
322
323
324
325
326
327
328
329
330
331
332
333
334
335
336
337
338
339
340
341
342
343
344
345
346
347
348
349
350
351
352
353
354
355
356
357
358
359
360
361
362
363
364
365
366
367
368
369
370
371
372
373
374
375
376
377
378
379
380
381
382
383
384
385
386
387
388
389
390
391
392
393
394
395
396
397
398
399
400
401
402
403
404
405
406
407
408
409
410
411
412
413
414
415
416
417
418
419
420
421
422
423
424
425
426
427
428
429
430
431
432
433
434
435
436
437
438
439
440
441
442
443
444
445
446
447
448
449
450
451
452
453
454
455
456
457
458
459
460
461
462
463
464
465
466
467
468
469
470
471
472
473
474
475
476
477
478
479
480
481
482
483
484
485
486
487
488
489
490
491
492
493
494
495
496
497
498
499
</DataArray>
<DataArray NumberOfComponents='1' type='Int8' Name='IsActive' format='ascii'>
1
0
1
1
0
1
0
1
1
1
0
1
1
1
1
0
1
0
1
0
1
1
0
1
0
0
1
0
1
1
1
1
1
1
0
1
0
0
1
0
1
1
1
1
1
1
1
1
0
1
0
1
0
1
1
0
1
1
0
1
1
0
1
1
0
1
1
0
0
0
0
1
0
0
1
1
1
0
1
1
1
0
0
0
0
1
1
0
0
0
1
0
0
0
0
1
1
1
0
0
0
1
0
1
1
0
1
0
1
0
0
1
1
0
0
0
1
0
1
1
1
1
0
0
1
1
0
1
0
0
1
1
0
0
0
0
0
1
0
1
0
0
1
0
0
1
1
0
0
0
0
1
0
0
0
1
0
1
1
1
1
1
0
1
1
1
0
1
1
1
1
0
0
1
0
1
1
0
1
0
0
0
0
0
1
0
0
1
1
1
1
0
0
1
1
0
0
1
0
0
0
0
1
0
1
0
1
0
0
1
1
0
0
0
0
0
0
1
0
1
0
1
1
0
0
0
1
1
1
0
0
1
1
0
0
1
0
1
1
1
1
1
0
0
0
1
1
1
1
1
1
1
0
0
0
1
1
1
1
1
1
1
0
1
0
0
1
1
0
1
0
1
0
1
0
1
0
1
0
1
0
0
0
0
0
1
0
1
0
1
1
0
0
1
1
1
0
1
0
1
1
0
0
0
1
0
0
1
1
0
0
1
1
0
0
1
0
1
0
1
0
0
1
1
1
0
1
0
0
0
1
1
1
0
1
0
1
1
1
0
0
1
0
1
1
0
1
1
1
1
0
0
1
0
1
1
1
0
0
0
0
0
1
0
1
1
1
1
1
1
1
1
0
0
0
1
1
1
0
0
0
0
1
0
1
0
0
1
1
1
0
1
0
1
0
1
0
1
0
1
1
1
0
1
0
0
1
0
1
0
1
0
1
1
0
0
0
1
1
0
0
1
1
0
1
0
0
1
0
0
0
1
0
1
1
1
0
0
0
1
0
1
0
0
1
0
0
1
0
1
1
0
0
1
1
0
1
0
0
0
1
0
1
1
1
0
1
0
1
0
1
1
1
1
0
0
1
0
1
1
1
0
1
0
1
0
1
1
1
1
0
0
1
1
0
0
1
1
1
1
</DataArray>
<DataArray NumberOfComponents='1' type='Int32' Name='ParticleTetID' format='ascii'>
52219
-61515
12170
67609
-58962
8840
-66558
66908
52220
17011
-66561
43016
7526
52453
78985
-64917
63055
-68099
6645
-66554
64156
96248
-58961
81758
-64916
-70586
74600
-61512
26620
56685
62753
33661
72185
67325
-112396
65271
-66561
-66555
55957
-66557
61471
56844
30473
56426
62990
9502
30868
63005
-64920
61221
-64914
66854
-61515
30005
19262
-61512
27380
7357
-64917
61367
30472
-64914
69861
63203
-72213
30490
52126
-64917
-66552
-66551
-66552
11877
-112396
-64916
27972
75002
62978
-58965
65903
61224
64729
-72207
-64920
-66554
-58961
52778
60862
-61515
-66557
-66558
25899
-64917
-72207
-66561
-61515
25957
31356
68005
-64919
-66548
-66561
401
-58962
3810
6111
-58955
66231
-59786
6433
-66554
-66554
2273
29126
-61518
-70584
-58965
85994
-64914
7940
59427
33371
59258
-64917
-66554
62897
27970
-146594
67413
-58962
-66560
4717
7472
-64914
-66588
-61518
-59791
-61512
57301
-112396
7472
-72210
-58965
59003
-61512
-58955
67051
61389
-58955
-59791
-156163
-66588
57385
-61515
-58955
-68105
91380
-66551
7322
25273
31322
62897
29218
-64916
59443
56846
57300
-64914
45154
69394
61726
10088
-66560
-58958
76357
-61511
63076
10690
-61514
63095
-58958
-72213
-64919
-61512
-68099
98736
-68105
-64919
77531
7297
6662
59571
-61518
-59783
62996
91606
-66558
-59786
61366
-59783
-66560
-58958
-58965
45574
-66557
65829
-59786
35228
-64914
-66551
7362
62936
-72207
-64916
-68102
-66561
-59788
-61511
62996
-61512
3417
-58955
41304
19977
-61518
-58955
-66551
63101
25523
61389
-61512
-66561
34940
33587
-59785
-66551
28911
-61518
72892
59911
62735
38339
63093
-61521
-61512
-58958
74404
61231
72813
58249
12364
71733
72206
-68103
-68102
-64917
26874
57125
7880
14145
73657
45080
128878
-66554
68840
-64913
-66551
5902
19217
-61521
3007
-64920
2213
-61514
45167
-61515
7319
-61517
59011
-64916
62936
-64920
-64916
-66561
-64920
-61512
141
-66564
90419
-58961
67564
57385
-61512
-58955
19262
27519
63104
-66551
14378
-61518
7418
17033
-66555
-58952
-126563
74990
-66558
-61514
73322
10491
-64919
-66561
7451
41540
-66555
-66551
7490
-61520
52454
-64920
63112
-58965
-58955
62762
61347
50417
-72207
52956
-66560
-59786
-61512
31178
6950
61409
-66557
31822
-66557
50918
66923
76411
-58962
-58955
24115
-66551
76673
32993
-61518
29900
70818
84682
65777
-61512
-66561
7958
-61515
29449
7408
52943
-68102
-64914
-68105
-58955
-66551
72813
-58961
25808
61961
48146
47497
6886
59077
74297
9469
-61511
-64920
-59788
64951
82961
61815
-61512
-68102
-66557
-66551
61959
-66551
2276
-112399
-58955
72691
63422
5476
-64919
12976
-61518
66659
-66555
35117
-66552
41865
-61518
7256
62914
7607
-66558
41363
-64920
-66551
50906
-66552
63203
-59786
56471
-66561
75477
7889
-61518
-66560
-61511
58197
28102
-61518
-58965
48653
45488
-72210
68835
-61518
-59791
60248
-66551
-126559
-61518
61726
-72207
66553
2276
42568
-61512
-61518
-64913
33425
-66591
63875
-58955
-66557
52064
-59791
-59782
56413
-64916
31516
35336
-66551
-66561
82989
31516
-72213
65739
-61515
-66552
-61512
18553
-64919
63095
25109
7399
-66551
59527
-61512
54246
-59783
26620
69031
28852
53264
-127033
-66551
54074
-64919
62915
7514
29231
-61512
48224
-64919
61463
-58965
52157
75665
73576
59421
-68105
-68106
61355
98736
-153844
-66551
56827
57835
59223
63008
</DataArray>
<DataArray NumberOfComponents='3' type='Float32' Name='vels' format='ascii'>
0.251124 -0.198031 0.000965
2.941750 0.743093 0.251364
0.010872 0.003169 -0.000651
0.181776 0.019795 0.000242
4.011166 -0.808442 0.007605
0.506348 -0.060080 -0.000123
5.291425 0.658114 0.015048
0.441788 -0.040067 -0.000696
0.206502 -0.152741 0.001187
0.373428 0.021974 0.000203
4.043204 0.516567 -0.062035
0.358509 0.242473 0.016655
0.029270 0.000054 -0.000706
1.501447 0.770627 0.000923
0.351388 0.316305 0.013812
4.781214 -0.633258 0.223552
0.037272 0.000277 -0.000415
1.841632 -0.359408 0.096556
0.058633 0.009575 -0.000663
4.618366 0.202199 0.374453
0.451938 0.073186 0.001235
0.009609 -0.008929 -0.000017
3.564954 -0.948543 -0.100939
0.001742 0.000109 0.001085
5.081494 -0.728568 0.061442
2.709453 -0.571234 0.037044
2.098155 0.055109 0.000275
2.291721 0.555347 0.251364
0.162989 -0.057079 0.000100
1.317034 0.054365 -0.000536
0.005426 -0.000006 -0.000174
3.925603 -0.020953 0.026930
2.703429 -0.716409 -0.002127
0.006489 -0.000004 -0.000177
30.832558 8.406263 0.242404
0.721051 0.007752 0.000184
3.361597 0.485264 0.057820
5.072144 0.616756 0.203979
0.287223 0.287614 0.005548
4.822554 0.159554 -0.071552
0.703386 0.184559 -0.000686
0.463858 0.268265 -0.000128
0.051257 0.024269 -0.000226
3.282735 1.228197 0.001900
0.024860 0.000011 -0.000105
0.009756 -0.001061 -0.000002
0.003777 0.005478 -0.000001
0.043765 0.000045 0.000817
5.038774 -0.652624 0.013047
0.089551 0.000143 0.001679
2.926561 -0.297746 0.581025
0.822044 0.043928 0.000077
2.831417 0.656188 0.157502
0.595768 -0.378452 -0.000794
0.000977 -0.000088 -0.000274
2.459462 0.587685 0.168515
0.113867 0.017894 0.000175
0.881072 -0.006041 0.001500
4.325011 -0.485807 0.474073
0.303536 0.001664 0.000238
0.060257 0.032997 -0.000028
3.009809 -0.323029 0.523657
1.052649 -0.098312 -0.001846
0.014225 0.000018 0.000491
1.625300 0.032475 -0.102624
0.035047 -0.006641 0.000006
0.000537 0.001021 -0.000000
4.340364 -0.231916 0.365021
3.114425 0.129711 0.500337
4.121013 0.480241 0.104173
3.314428 0.340714 0.441299
0.916286 -0.007682 0.001143
46.675339 14.517866 -0.076229
4.966831 -0.741021 0.103249
0.811756 0.325986 0.007883
-0.000090 -0.000398 -0.002391
0.369720 -0.001939 -0.000948
4.058145 -0.762731 -0.344492
0.062925 -0.000267 -0.000157
0.005717 -0.000006 -0.000003
1.326487 0.301691 0.000734
2.447300 0.404613 0.136695
4.955756 -0.666599 0.026369
5.270291 0.597518 0.093265
3.790543 -0.755850 0.004429
0.091332 0.044425 -0.001042
2.843515 -1.120107 -0.008176
2.891380 0.658313 0.072510
4.708169 0.714293 0.041555
5.286538 0.662013 0.016323
1.151988 -0.255513 0.003563
4.335292 -0.493674 0.469468
2.376679 0.415278 0.303110
3.978817 0.514039 -0.035953
2.925429 0.736889 0.253986
1.035513 -0.071413 0.002530
0.848593 0.100839 -0.001123
0.225093 -0.015025 0.000391
4.657912 -0.665986 -0.017331
0.402313 0.016930 0.069481
4.122142 0.520750 -0.092827
0.115377 0.000057 0.000093
4.068510 -0.838672 0.002245
-0.003295 -0.000005 0.001877
0.024188 0.003855 0.000554
3.529941 -0.711878 0.030954
2.276203 0.081988 0.002243
5.068028 0.739679 0.098900
0.158039 0.025533 0.000115
5.282705 0.607003 0.090999
4.672356 0.220515 0.340548
0.001203 0.001003 0.000739
0.510775 1.022246 -0.009496
2.719856 0.689432 0.014472
1.875758 -0.371275 0.170103
3.526443 -0.813141 -0.314200
-0.000693 0.000355 0.001854
2.977139 -0.317598 0.549789
0.180586 0.052476 0.000571
3.992736 0.175043 -0.003118
0.071125 0.093986 -0.000389
1.300518 0.054431 -0.000138
5.097804 -0.739710 -0.004191
5.187976 0.534039 0.131804
0.030187 -0.000003 0.000564
0.037234 -0.015116 0.000048
0.063052 -0.112684 0.126129
0.124244 0.000254 -0.000266
3.941319 -0.939718 0.019078
3.094111 0.466580 0.051646
0.691619 0.598963 0.000678
0.013945 0.000010 -0.001433
2.947628 -0.317004 0.559127
3.315421 0.229466 0.303735
3.114699 0.812712 -0.006021
3.981705 0.784788 -0.179278
2.397503 0.576482 0.045044
2.465526 -0.037193 -0.007635
46.605008 17.425592 -0.121316
0.023359 -0.000025 -0.001210
2.453705 0.036037 -0.002453
3.273935 -0.703619 -0.146819
0.349642 0.479500 0.001303
2.267504 0.537684 0.170558
3.031390 -0.650702 0.168210
0.258013 0.005618 0.000035
0.005340 -0.000002 -0.000005
3.485382 -0.705401 0.047642
4.244217 0.718171 -0.088138
0.078912 -0.035162 -0.038296
3.309975 0.272851 0.268077
1.070751 -0.225246 0.000356
3.143853 0.750221 0.009430
3.065246 -0.673178 0.198509
4.241233 -0.744797 0.007929
1.487342 -3.741431 0.543859
3.991307 0.425104 0.155119
0.156591 0.000169 0.000544
2.507984 0.971608 -0.000998
1.372005 -0.355548 0.003091
0.105412 -0.000104 -0.000210
1.438796 -0.863329 -0.000282
4.864729 -0.743999 0.144699
4.224809 -0.356844 0.001461
0.871610 0.420272 0.000746
0.998203 -0.006211 -0.003448
2.983754 -0.330680 0.536378
-0.005801 -0.033454 -0.000574
0.065241 0.000069 -0.000987
1.611422 0.041397 0.000058
0.009720 0.002852 -0.000337
2.912069 0.446903 0.058844
4.195891 -0.823559 0.007726
0.532969 0.008179 -0.003447
3.421469 0.801853 0.232091
0.589596 0.004484 -0.000424
-0.000316 0.000146 0.000120
3.917611 0.961390 0.066384
0.009932 0.000006 0.000747
3.998002 -0.839101 0.052347
2.110943 0.365026 -0.216448
4.558290 -0.718325 -0.153658
2.517882 0.602668 0.087560
2.602964 -0.618944 0.038887
-0.002607 0.002235 0.000299
3.746715 -0.624846 0.010220
4.537418 -0.639668 -0.001990
1.499755 0.155589 0.000236
0.043953 -0.000076 0.000186
0.341846 0.057759 -0.000086
4.176496 -0.127730 0.003292
3.114020 0.835475 0.004567
4.032579 0.575637 0.282121
0.262236 -0.000638 0.000162
1.246151 0.626232 0.001769
5.273003 0.663612 0.018242
5.040750 0.742126 0.111195
0.354683 0.000935 -0.000867
4.238118 0.605920 0.212747
3.032198 0.458377 0.052126
3.570209 -0.858505 0.231158
3.211295 -0.716464 -0.163990