<VTKFile type='UnstructuredGrid' version='1.0' byte_order='LittleEndian' header_type='UInt64'>
<UnstructuredGrid>
<Piece NumberOfCells='500' NumberOfPoints='500'>
<Points>
<DataArray NumberOfComponents='3' type='Float32' Name='Position' format='ascii'>
659.300876 182.023698 -4.665095
1029.059357 188.209033 -16.808274
-75.857275 381.001115 -6.349352
929.501516 241.006225 -6.319379
1029.278797 232.304881 -20.074967
-77.651709 109.058208 -2.391645
1029.253611 152.748402 -21.930599
1028.999307 227.831264 -4.645276
642.785747 185.205954 -4.002365
328.335997 274.743293 -5.231181
1029.136333 154.676584 -29.201451
89.627001 177.671642 -26.379198
291.571846 217.163275 -6.212332
714.007132 133.049235 -4.359045
640.423335 216.814087 -4.344973
1029.359902 252.147987 -15.006536
1029.119520 187.784713 -4.743284
1029.087137 262.783777 -11.868301
488.300792 246.320669 -6.246811
1029.193912 138.980634 -19.474711
1029.180406 166.324271 -12.000646
786.607696 75.950156 -4.538793
1029.076102 228.539705 -26.569211
460.846241 396.344122 -3.649952
1029.103216 249.678682 -17.080837
1028.990499 208.533237 -16.447437
1029.196326 188.604010 -17.100767
1029.136178 186.426719 -8.694585
284.349955 290.395873 -37.632253
1029.023483 265.307023 -7.267714
703.275971 215.128535 -12.144560
508.214838 86.642023 -5.543871
1029.231420 262.000992 -8.732897
1029.083701 205.611464 -10.271489
422.306524 386.274159 -3.543799
1028.995048 200.728172 -8.454059
1029.074164 155.183680 -27.112406
1029.321351 153.281068 -16.377951
704.008004 177.090585 -31.475993
1028.982668 142.206514 -26.628187
1028.977491 138.452308 -6.168599
744.491289 137.698628 -2.667876
559.012939 59.931320 -36.209070
1029.147816 142.387907 -29.713177
846.419374 212.695429 -17.711160
-184.295576 220.458671 -37.647214
352.592772 25.259391 -33.473412
1029.016275 203.193862 -10.300218
1029.339088 256.934836 -22.392138
776.779703 190.056606 -6.845914
1029.096555 251.048780 -9.627166
1028.976346 227.605951 -4.622459
1029.044092 190.888146 -17.070591
354.892058 307.697670 -37.356018
-492.020408 186.821119 -2.208414
1029.140656 185.673421 -7.749712
660.229800 333.756803 -4.584369
-116.460675 181.095116 -30.990754
1029.281029 251.617953 -16.541149
778.605346 51.746536 -11.744474
847.792020 109.746693 -29.182889
1029.144067 251.298274 -9.433218
1029.034549 273.754103 -8.068011
1029.092811 199.203232 -10.424503
1029.099325 207.296483 -29.207397
386.077250 263.155757 -27.760960
735.250477 164.437625 -36.520588
1029.003818 260.121252 -19.353480
1029.219105 141.565174 -7.227381
1029.030335 140.847806 -10.327024
1029.210581 151.177371 -10.058554
-74.153735 183.919834 -34.922106
422.743582 386.163063 -3.664093
1029.370072 249.889205 -17.917543
659.705393 222.586509 -3.686165
606.037732 214.243466 -30.922371
1028.990420 203.263316 -27.345185
1029.088630 226.583231 -26.791639
688.698249 192.141235 -7.882036
696.110963 182.404722 -13.226800
1000.284149 146.769531 -6.258782
1029.075219 199.084609 -13.594524
1029.306689 250.607125 -21.757990
1029.275264 140.263570 -17.033113
1029.110714 228.986199 -22.802082
756.609725 139.760276 -4.043717
1029.118126 264.933374 -10.231840
1029.150350 191.275146 -16.086105
1029.304192 140.303527 -20.675616
1029.296586 152.742705 -21.728450
517.697275 197.440967 -33.481197
1029.317875 251.504023 -16.457303
1029.142010 196.584875 -14.344229
1029.292726 155.217574 -29.018318
1029.213633 188.409014 -16.858498
532.577247 204.528139 -1.758264
394.615005 67.476902 -0.024700
1029.083866 230.763947 -4.547148
1029.337316 249.376128 -23.538960
1029.006290 140.497051 -6.606818
1029.101994 154.322595 -29.456101
252.628785 357.874063 -12.645721
1029.023898 231.951962 -20.916878
-432.407569 176.888235 -26.667328
-304.647842 258.164127 -20.013655
1029.244989 230.300666 -9.687840
1029.187334 191.618517 -20.456878
1029.318341 165.992030 -17.959244
-261.094208 265.467553 -19.959007
1028.977543 140.299234 -17.001177
1029.189046 140.141349 -19.420439
-501.291928 192.579029 -9.205355
490.514342 365.385172 -4.902278
1029.088515 191.145182 -20.070877
1029.119364 214.611647 -7.296110
1029.162892 231.219450 -28.952026
439.429620 74.076917 -21.012764
1029.069190 250.884586 -9.429735
-110.786698 386.579950 -5.710196
1029.161448 191.361488 -22.229912
266.107158 164.733586 -36.158668
1029.017562 182.407524 -4.431521
1029.203531 259.133438 -14.979347
1029.386622 140.349597 -17.517165
823.098087 212.685268 -8.839563
122.308296 222.313346 -33.711665
377.639320 41.467018 -2.348081
712.139633 212.639553 -7.082736
1029.257480 229.715106 -21.899225
1029.221177 141.549552 -28.168380
598.951834 58.992015 -5.090861
-148.131062 214.767774 -5.659626
1029.184340 250.622315 -9.354484
1029.115912 138.104862 -11.754595
1029.020587 188.147850 -23.823336
1029.259073 166.069571 -28.080659
1029.121508 190.466885 -8.136797
1029.124786 206.293152 -17.948811
422.237684 386.356569 -3.913509
-142.737258 213.647668 -4.114775
1028.976683 198.275371 -20.143932
1029.216848 231.067388 -27.441933
912.054643 172.798666 -36.391315
1029.134359 189.002731 -8.993922
1028.982673 228.031097 -11.093356
1029.039157 263.371907 -6.178223
954.210938 103.519162 -21.066826
1029.064718 230.128527 -9.890916
1029.261154 171.158954 -29.184869
381.472231 52.266270 -10.001146
1029.152980 136.636137 -10.985803
1028.980528 254.689233 -4.344013
1029.072949 189.720784 -13.672791
1029.126679 229.823613 -11.368067
1029.116635 266.379400 -22.171789
1006.344443 267.998928 -11.563725
1029.194718 140.926378 -10.790143
308.478707 180.411310 -31.634377
511.386929 155.178842 -2.575193
549.862892 187.938200 -5.578977
947.238508 219.727326 -12.828572
850.618002 315.957019 -11.888887
1029.165082 249.277036 -18.436584
1029.236544 229.448986 -17.039859
598.169381 109.169741 -1.868254
1029.046234 203.253687 -14.894425
1029.162656 250.509853 -9.214404
352.184453 80.247745 -25.632097
562.971281 4.235113 -13.327602
707.231139 35.680781 -12.507866
241.873539 304.128778 -16.675160
1028.993105 141.600352 -27.791848
1029.312762 229.305865 -15.668280
835.212392 221.305949 -4.045503
1029.207264 189.143456 -11.935037
1029.079315 195.523317 -11.910939
-521.895944 274.693326 -37.153018
1029.232534 189.628657 -19.390733
1012.380301 200.226857 -10.637771
1029.259166 229.986926 -17.220021
1029.103068 198.247599 -27.320136
1028.989402 252.799752 -25.582654
1029.160703 187.417509 -7.500706
1029.086343 261.955222 -10.171866
90.193301 179.653353 -26.141855
1029.196213 265.861447 -23.563606
1029.060599 250.741090 -23.158830
1028.978047 263.287548 -11.028804
538.632485 159.335928 -17.406067
-102.681540 317.979722 -3.579113
1029.184939 230.710144 -21.207296
1029.139103 188.001014 -24.091368
1029.296602 165.116357 -11.684768
771.182512 212.663064 -28.661125
363.858363 322.765456 -2.647327
1029.246652 152.097065 -21.274371
1029.238727 166.185289 -18.220476
705.885653 31.218151 -12.475946
1029.317852 166.310171 -11.196974
1029.074538 141.753036 -28.112455
1028.978325 226.681346 -19.098767
1029.070636 229.001683 -26.946571
378.289580 293.026854 -34.480230
1029.076318 154.088305 -26.648681
1029.022982 123.593200 -7.574731
1029.134247 165.425647 -17.916420
761.953853 86.091114 -4.012920
1028.993193 251.027087 -9.360745
1029.191202 138.906774 -12.100933
-54.938193 200.230394 -3.022784
790.843373 212.671420 -15.948524
1028.987540 207.207378 -15.083185
1029.256612 249.121303 -18.632310
1029.083419 261.565138 -18.628778
1029.186294 141.644426 -26.875536
1029.125480 163.915666 -20.865933
1029.067550 187.903334 -11.437351
780.158774 212.668376 -28.398868
1028.977323 191.701105 -10.560304
114.117026 167.080377 -35.046353
1029.130325 227.908705 -11.363294
1029.161652 187.907923 -23.740786
631.710521 44.426393 -27.854955
1028.994581 191.539402 -20.807746
1029.089074 228.582486 -11.134421
1029.032689 139.337093 -11.491075
924.832998 181.877877 -26.609878
372.620258 58.008078 -18.904551
1019.931895 122.085634 -20.880840
1029.118109 188.779216 -7.828990
1029.058995 154.448558 -27.720059
431.909000 254.555876 0.000849
539.771229 210.842675 -35.625588
1029.130825 162.909080 -15.085360
1029.287445 139.578995 -9.591735
539.203074 386.680623 -5.708513
1029.138655 191.579951 -20.417899
753.441613 219.871041 -26.027550
698.680499 180.825768 -19.899883
1029.215009 263.230013 -9.648705
1029.156459 142.382262 -28.460508
1029.034368 200.459019 -7.800582
1029.114565 185.116480 -26.917102
1029.027159 188.449629 -8.741109
1029.088616 227.990706 -18.525192
1028.995233 188.013687 -23.848952
765.031567 192.170510 -30.103184
1028.976192 263.358560 -7.415076
1028.983311 138.661981 -6.366192
506.486691 35.117850 -28.113222
1029.056723 204.324582 -9.094241
1028.993735 205.652109 -16.980837
1029.000713 266.680231 -14.841078
1029.019230 264.554280 -17.341043
1029.020443 260.195748 -17.082613
728.359510 170.801831 -6.007653
1029.136234 190.187559 -24.030354
95.159024 308.866190 -30.594676
228.974561 218.053245 -36.957290
662.565921 184.656916 -5.571161
316.710688 181.126170 -17.525591
675.619682 223.145764 -3.816616
1028.992364 140.724015 -18.226469
1029.094447 201.959905 -15.364515
1029.288175 250.532170 -11.240318
1028.982169 140.578835 -8.523235
432.266896 50.166701 -19.830263
-499.200404 188.911034 -25.270672
1028.991480 184.793799 -26.995024
42.236555 263.938548 -4.365117
1029.263509 251.378450 -21.648380
-405.973818 125.856038 -36.101108
1029.055936 181.494904 -18.997324
311.299475 150.340410 -10.439153
1029.168282 189.604127 -16.148881
517.027886 161.104744 -26.433243
1029.060040 188.469406 -26.483053
1029.156936 166.796368 -19.504463
1029.062033 251.332961 -17.754174
949.997351 219.984448 -19.831752
1029.058731 251.612451 -21.507725
1029.209896 251.530546 -18.765869
1029.226357 141.141672 -26.962504
1029.035831 258.818714 -21.723534
1029.137454 191.840832 -7.148699
609.688332 41.222600 -27.411872
1028.992617 143.275617 -33.765066
490.187459 369.705853 -3.578220
1029.052570 231.238678 -23.593649
1028.981230 228.890302 -26.848342
1029.093284 251.035262 -4.689537
1029.019086 186.784368 -8.920433
1029.062089 229.606706 -11.842059
-493.338334 185.991928 -4.303246
462.625471 6.626917 -28.898418
1029.120593 200.514852 -29.478235
1029.055737 139.105929 -11.640209
668.440677 84.148196 -32.523059
1029.084872 192.212440 -20.238293
-175.189191 212.829827 -5.198290
582.393428 181.494417 -12.434776
1028.996143 151.715862 -17.273462
1028.994285 231.174448 -6.028807
411.591621 245.039275 -3.410562
606.247943 214.786468 -4.639108
1029.256785 153.702561 -22.613375
1029.274629 189.295571 -19.419725
1028.980026 266.824802 -15.162600
801.169600 82.745075 -28.017878
1029.096721 252.600993 -23.946544
1029.235200 153.879772 -27.568629
-211.408801 213.454833 -36.170857
1029.187861 266.035594 -23.100899
1029.273908 151.732683 -17.452964
1029.014351 139.407205 -11.818104
-27.388203 213.865084 -4.669610
1028.984348 184.826144 -32.941579
765.152000 141.873439 -3.386319
1028.980649 249.835231 -21.175183
949.236488 188.854835 -11.094150
1029.188393 230.634547 -28.444128
1029.080799 230.197874 -9.454699
758.808661 213.708793 -30.950229
1029.079907 272.075715 -6.574468
1029.065069 166.705688 -29.107270
1029.008500 206.564596 -15.792315
670.764737 154.558936 -2.305404
1029.067852 141.603446 -27.818469
1029.069269 165.176413 -18.524279
1029.133526 191.427176 -10.540003
502.550636 141.224400 -2.654897
346.896989 74.901055 -4.865617
702.774474 30.061256 -25.739439
1029.220334 140.786220 -22.054353
458.654174 234.730359 -32.866821
1029.175277 141.288491 -25.554240
495.618843 157.145508 -30.615171
1028.983994 232.598256 -35.049830
723.694553 134.239312 -4.615693
1029.228811 229.056026 -21.423484
1029.263211 229.727649 -8.828450
539.818134 186.427138 -29.289544
1029.255636 140.847097 -10.347196
1029.144526 262.952322 -22.063480
825.277009 90.442646 -32.942520
1029.093018 189.431262 -22.359625
344.036945 326.469533 -2.485030
1029.246426 229.393185 -16.587050
1029.139657 191.405911 -25.144298
1029.093379 191.825392 -10.545870
1029.146176 187.848913 -9.040993
1029.240783 141.515258 -27.379984
-179.661072 370.148114 -6.215156
1029.025452 191.423095 -15.451683
634.630227 363.009507 -5.647872
339.140133 223.730592 -26.553941
681.671330 22.618602 -10.245738
1029.083022 262.773429 -19.497108
1029.086616 250.371744 -7.973811
1029.037398 262.781573 -26.167907
1029.137774 227.226450 -10.712844
1029.144133 141.824809 -12.094427
1028.988883 264.995240 -7.280992
1029.072346 230.843770 -24.585391
596.147291 9.027143 -28.798991
706.401129 30.573260 -11.837510
1029.022948 190.328694 -22.596931
383.680251 264.303353 -20.027076
-98.926777 106.601288 -26.033663
761.935563 139.659921 -5.971791
1028.999467 189.009184 -23.377562
310.758082 212.761946 -5.489526
1029.220458 185.847851 -11.251454
1029.284457 252.216365 -23.460776
1029.129728 164.701498 -20.667179
1029.238084 189.379812 -19.425016
1029.118967 255.401170 -11.213091
1028.998408 152.824558 -6.281295
1029.029557 189.622144 -9.059488
1029.097936 262.061277 -16.866182
1029.292222 139.341657 -20.537809
1029.028994 140.404660 -8.938870
865.706785 78.669181 -6.667834
1029.005844 140.255329 -9.204981
-500.268648 192.821229 -14.895410
422.364659 386.234165 -5.736371
1029.087163 227.049554 -11.271518
789.742193 188.385518 -19.302530
1017.688469 274.149064 -18.054725
58.164648 21.405017 -11.647458
1029.284670 252.620977 -25.589771
-247.514955 213.091654 -37.544209
1029.146218 191.360374 -20.366622
1029.105913 190.489401 -8.928432
1028.984297 152.167014 -15.410153
548.806662 197.176054 -34.318565
1028.977495 139.629717 -6.673073
166.439357 219.070207 -34.837448
1029.217982 189.239624 -24.197824
-68.231478 183.842927 -5.637539
805.361828 212.678350 -9.199199
-164.047699 24.203958 -26.189680
1029.331110 152.525238 -20.330589
124.401997 231.377829 -36.256900
1029.187656 251.079710 -22.841616
1029.318670 140.222168 -7.695200
586.677438 169.616529 -6.102815
1029.189180 152.203793 -9.786901
1028.984107 199.209111 -10.400203
1029.020630 165.105675 -19.151886
1029.009679 191.458190 -6.372217
1029.190473 154.549839 -27.821762
1029.119299 138.490448 -7.169665
-54.049593 386.813334 -12.550201
1028.992859 189.529076 -21.214293
1029.200837 141.506837 -28.207214
1029.122687 189.627835 -12.980992
1029.110689 230.414989 -7.779148
312.714360 143.219252 -9.743380
1029.067094 190.358882 -21.601804
1029.149717 228.931587 -26.989552
504.343194 43.729898 -35.123843
713.372351 336.833917 -6.576728
1029.126705 199.221430 -20.196635
1028.978204 191.616251 -5.973972
1029.154759 191.002642 -23.581673
1029.118563 166.532241 -28.691753
831.474956 222.593559 -4.233726
1029.114841 139.297521 -11.567960
411.558032 245.110662 -3.276845
1029.136270 191.163161 -23.318089
738.801058 40.412216 -10.674535
1029.105731 205.069380 -15.635904
1028.991614 151.329544 -19.248305
-500.268054 192.953454 -15.006825
372.583227 54.707716 -20.816006
1029.120078 187.702432 -9.310782
1029.163817 184.148452 -21.974278
1029.312471 248.234907 -9.873754
596.108646 140.156984 -33.460847
1029.328978 136.843542 -18.881703
1029.094399 248.978200 -25.149447
1029.222021 229.310936 -11.098716
1029.172426 140.413768 -21.018412
1029.112981 188.285432 -16.581198
1029.118423 167.132526 -29.081801
1029.032436 162.086172 -8.090933
1029.041121 142.217793 -6.243565
1029.236015 251.014534 -17.909152
499.905980 212.009259 -35.197019
610.361281 240.425529 -1.779320
1028.977966 139.590846 -10.513834
1029.013381 155.959542 -27.775785
716.679575 178.633029 -26.531422
377.570500 256.553739 -33.649181
1029.030631 206.195502 -29.210784
1029.020288 191.442614 -6.282925
1029.122752 191.332256 -15.803695
1029.022018 152.098673 -9.721617
1028.979961 185.456998 -7.675500
284.874442 51.904189 -32.241403
1029.034602 250.235039 -24.035320
1028.995501 195.148381 -11.832256
372.583433 59.776160 -12.460715
-122.885345 219.691557 -6.302015
1029.121923 139.486113 -10.572183
1028.993989 138.911566 -6.091481
1029.016906 187.725508 -9.274138
1029.048186 204.788225 -27.515886
1029.281845 164.317919 -10.568704
286.309105 292.222359 -37.755763
830.513250 297.680367 -5.843656
124.661067 228.866969 -36.175284
733.891736 38.322160 -8.755733
400.884835 273.474580 -5.355285
1029.080642 139.809185 -8.448109
682.252009 161.813893 -2.319940
1029.190996 251.339016 -24.093351
823.576133 212.679033 -8.359305
356.682974 234.259888 -18.908617
167.792212 213.918199 -37.126663
1029.091622 188.026010 -8.426024
542.574252 153.074343 -1.560648
1029.233175 246.857364 -23.058501
755.049785 347.439375 -26.184142
1029.182799 226.565878 -26.855878
1029.101006 187.965896 -24.494495
1029.001557 265.025473 -24.043119
1029.035127 184.774956 -22.472807
1029.077783 191.459570 -6.368736
1029.147602 265.728428 -24.808093
1028.979811 266.614511 -21.884949
827.033405 332.187796 -24.111686
89.914581 178.688183 -26.263738
378.075462 7.721897 -0.963226
1029.072314 141.391280 -11.738849
870.950786 113.246208 -5.344173
1029.042814 142.222528 -5.287601
850.794372 290.741257 -6.666119
1002.837099 207.947102 -17.358937
</DataArray>
</Points>
<PointData>
<DataArray NumberOfComponents='1' type='Int32' Name='ParticleType' format='ascii'>
1
1
1
1
1
1
1
1
1
1
1
1
1
1
1
1
1
1
1
1
1
1
1
1
1
1
1
1
1
1
1
1
1
1
1
1
1
1
1
1
1
1
1
1
1
1
1
1
1
1
1
1
1
1
1
1
1
1
1
1
1
1
1
1
1
1
1
1
1
1
1
1
1
1
1
1
1
1
1
1
1
1
1
1
1
1
1
1
1
1
1
1
1
1
1
1
1
1
1
1
1
1
1
1
1
1
1
1
1
1
1
1
1
1
1
1
1
1
1
1
1
1
1
1
1
1
1
1
1
1
1
1
1
1
1
1
1
1
1
1
1
1
1
1
1
1
1
1
1
1
1
1
1
1
1
1
1
1
1
1
1
1
1
1
1
1
1
1
1
1
1
1
1
1
1
1
1
1
1
1
1
1
1
1
1
1
1
1
1
1
1
1
1
1
1
1
1
1
1
1
1
1
1
1
1
1
1
1
1
1
1
1
1
1
1
1
1
1
1
1
1
1
1
1
1
1
1
1
1
1
1
1
1
1
1
1
1
1
1
1
1
1
1
1
1
1
1
1
1
1
1
1
1
1
1
1
1
1
1
1
1
1
1
1
1
1
1
1
1
1
1
1
1
1
1
1
1
1
1
1
1
1
1
1
1
1
1
1
1
1
1
1
1
1
1
1
1
1
1
1
1
1
1
1
1
1
1
1
1
1
1
1
1
1
1
1
1
1
1
1
1
1
1
1
1
1
1
1
1
1
1
1
1
1
1
1
1
1
1
1
1
1
1
1
1
1
1
1
1
1
1
1
1
1
1
1
1
1
1
1
1
1
1
1
1
1
1
1
1
1
1
1
1
1
1
1
1
1
1
1
1
1
1
1
1
1
1
1
1
1
1
1
1
1
1
1
1
1
1
1
1
1
1
1
1
1
1
1
1
1
1
1
1
1
1
1
1
1
1
1
1
1
1
1
1
1
1
1
1
1
1
1
1
1
1
1
1
1
1
1
1
1
1
1
1
1
1
1
1
1
1
1
1
1
1
1
1
1
1
1
1
1
1
1
1
1
1
1
1
1
1
1
1
1
1
1
1
1
1
1
1
1
1
1
1
1
1
1
1
1
1
1
1
1
1
1
1
1
1
1
</DataArray>
<DataArray NumberOfComponents='1' type='Int32' Name='ParticleID' format='ascii'>
0
1
2
3
4
5
6
7
8
9
10
11
12
13
14
15
16
17
18
19
20
21
22
23
24
25
26
27
28
29
30
31
32
33
34
35
36
37
38
39
40
41
42
43
44
45
46
47
48
49
50
51
52
53
54
55
56
57
58
59
60
61
62
63
64
65
66
67
68
69
70
71
72
73
74
75
76
77
78
79
80
81
82
83
84
85
86
87
88
89
90
91
92
93
94
95
96
97
98
99
100
101
102
103
104
105
106
107
108
109
110
111
112
113
114
115
116
117
118
119
120
121
122
123
124
125
126
127
128
129
130
131
132
133
134
135
136
137
138
139
140
141
142
143
144
145
146
147
148
149
150
151
152
153
154
155
156
157
158
159
160
161
162
163
164
165
166
167
168
169
170
171
172
173
174
175
176
177
178
179
180
181
182
183
184
185
186
187
188
189
190
191
192
193
194
195
196
197
198
199
200
201
202
203
204
205
206
207
208
209
210
211
212
213
214
215
216
217
218
219
220
221
222
223
224
225
226
227
228
229
230
231
232
233
234
235
236
237
238
239
240
241
242
243
244
245
246
247
248
249
250
251
252
253
254
255
256
257
258
259
260
261
262
263
264
265
266
267
268
269
270
271
272
273
274
275
276
277
278
279
280
281
282
283
284
285
286
287
288
289
290
291
292
293
294
295
296
297
298
299
300
301
302
303
304
305
306
307
308
309
310
311
312
313
314
315
316
317
318
319
320
321
322
323
324
325
326
327
328
329
330
331
332
333
334
335
336
337
338
339
340
341
342
343
344
345
346
347
348
349
350
351
352
353
354
355
356
357
358
359
360
361
362
363
364
365
366
367
368
369
370
371
372
373
374
375
376
377
378
379
380
381
382
383
384
385
386
387
388
389
390
391
392
393
394
395
396
397
398
399
400
401
402
403
404
405
406
407
408
409
410
411
412
413
414
415
416
417
418
419
420
421
422
423
424
425
426
427
428
429
430
431
432
433
434
435
436
437
438
439
440
441
442
443
444
445
446
447
448
449
450
451
452
453
454
455
456
457
458
459
460
461
462
463
464
465
466
467
468
469
470
471
472
473
474
475
476
477
478
479
480
481
482
483
484
485
486
487
488
489
490
491
492
493
494
495
496
497
498
499
</DataArray>
<DataArray NumberOfComponents='1' type='Int8' Name='IsActive' format='ascii'>
1
0
1
1
0
1
0
0
1
1
0
1
1
1
1
0
0
0
1
0
0
1
0
1
0
0
0
0
1
0
1
1
0
0
0
0
0
0
1
0
0
1
1
0
0
1
1
0
0
1
0
0
0
1
1
0
1
1
0
1
1
0
0
0
0
1
1
0
0
0
0
1
0
0
1
1
0
0
0
1
1
0
0
0
0
1
0
0
0
0
1
0
0
0
0
1
1
0
0
0
0
1
0
1
1
0
0
0
1
0
0
1
1
0
0
0
1
0
1
0
1
0
0
0
0
1
0
0
0
0
1
1
0
0
0
0
0
0
0
1
0
0
1
0
0
0
1
0
0
0
0
0
0
0
0
1
0
1
1
1
1
1
0
0
1
0
0
1
1
1
1
0
0
1
0
0
1
0
1
0
0
0
0
0
1
0
0
0
1
1
0
0
0
0
1
0
0
1
0
0
0
0
1
0
0
0
1
0
0
1
0
0
0
0
0
0
0
0
0
1
0
0
1
0
0
0
1
0
1
0
0
0
1
0
0
1
0
1
1
0
0
0
0
0
0
0
0
0
0
1
0
0
0
0
0
1
0
1
1
1
1
1
0
0
0
0
1
1
0
1
0
1
0
1
0
1
0
0
0
1
0
0
0
0
0
1
0
1
0
0
0
0
0
1
1
0
0
1
0
1
1
0
0
0
1
0
0
0
1
0
0
1
0
0
0
1
0
1
0
1
0
0
1
0
0
0
1
0
0
0
1
1
1
0
1
0
1
0
1
0
0
1
0
0
1
0
1
0
0
0
0
0
1
0
1
1
1
0
0
0
0
0
0
0
1
1
0
1
1
1
0
1
0
0
0
0
0
0
0
0
0
0
1
0
1
0
0
1
1
1
0
1
0
0
0
1
0
1
0
1
0
1
0
1
0
0
1
0
0
0
0
0
0
1
0
0
0
0
1
0
0
1
1
0
0
0
0
1
0
0
0
1
0
0
1
0
0
0
0
1
0
0
0
0
0
0
0
0
0
1
1
0
0
1
1
0
0
0
0
0
1
0
0
0
1
0
0
0
0
0
1
1
1
1
0
0
1
0
0
1
1
0
1
0
1
0
0
0
0
0
0
0
1
1
0
0
1
0
1
1
</DataArray>
<DataArray NumberOfComponents='1' type='Int32' Name='ParticleTetID' format='ascii'>
63146
-61515
632
62713
-58962
22572
-66558
-58952
72686
38216
-66561
98736
25184
64189
62678
-64917
-61508
-68099
52651
-66554
-59783
73298
-58961
81758
-64916
-70586
-61515
-61512
29806
-68100
62897
64783
-68099
-72204
-112396
-72204
-66561
-66555
65372
-66557
-66585
62028
68723
-66560
-69092
9520
47013
-72204
-64920
63075
-64914
-58952
-61515
37240
19262
-61512
56594
5395
-64917
63635
61826
-64914
-68100
-72203
-72213
82654
71423
-64917
-66552
-66551
-66552
21939
-112396
-64916
62982
67424
-72213
-58965
-63131
63112
76177
-72207
-64920
-66554
-58961
64136
-68099
-61515
-66557
-66558
66471
-64917
-72207
-66561
-61515
62858
173102
-58952
-64919
-66548
-66561
31522
-58962
3810
6435
-58955
-61518
-59786
6343
-66554
-66554
2273
53299
-61518
-70584
-58965
87804
-64914
10802
-61518
96007
-61508
-64917
-66554
-62952
40066
-146594
-63024
-58962
-66560
70184
13519
-64914
-66588
-61518
-59791
-61512
-72207
-112396
17030
-72210
-58965
78713
-61512
-58955
-68096
66969
-58955
-59791
-156163
-66588
-64911
-61515
-58955
-68105
75749
-66551
42026
69102
57098
67324
67235
-64916
-58958
68618
-72207
-64914
50915
61384
66262
33938
-66560
-58958
67772
-61511
-72203
10690
-61514
75245
-58958
-72213
-64919
-61512
-68099
98736
-68105
-64919
-68099
58219
12566
-58962
-61518
-59783
-63014
30528
-66558
-59786
63545
-59783
-66560
-58958
-58965
44513
-66557
-66588
-59786
64874
-64914
-66551
17156
-63044
-72207
-64916
-68102
-66561
-59788
-61511
-63015
-61512
99142
-58955
-61518
58314
-61518
-58955
-66551
69148
-84717
66483
-61512
-66561
-136563
61253
-59785
-66551
61291
-61518
62974
63115
-68099
-66560
-72204
-61521
-61512
-58958
-61518
-63212
-68100
-66585
67692
-72204
-72207
-68103
-68102
-64917
60301
-61518
34358
36610
63145
43694
62912
-66554
-72207
-64913
-66551
86724
19217
-61521
29395
-64920
2213
-61514
43709
-61515
60976
-61517
-59786
-64916
67327
-64920
-64916
-66561
-64920
-61512
61014
-66564
51912
-58961
-58965
-64910
-61512
-58955
19262
53222
-72213
-66551
62384
-61518
7526
74416
-66555
-58952
-126563
67412
-66558
-61514
-68103
73363
-64919
-66561
9466
-68105
-66555
-66551
19764
-61520
62046
-64920
67343
-58965
-58955
62978
-68096
-59791
-72207
73260
-66560
-59786
-61512
65738
34058
63550
-66557
53239
-66557
52339
-58968
62138
-58962
-58955
64868
-66551
-68105
78403
-61518
32850
-58958
-61518
-61512
-61512
-66561
7886
-61515
67016
45011
75407
-68102
-64914
-68105
-58955
-66551
-68100
-58961
70862
63545
-61518
82198
12593
62047
-61518
34922
-61511
-64920
-59788
-61514
-64914
-66548
-61512
-68102
-66557
-66551
63615
-66551
2276
-112399
-58955
63170
67994
40180
-64919
9556
-61518
-61512
-66555
77561
-66552
90327
-61518
21709
-62951
7732
-66558
92064
-64920
-66551
80173
-66552
-72203
-59786
-61508
-66561
-66588
17536
-61518
-66560
-61511
-58956
45131
-61518
-58965
64745
68869
-72210
-61509
-61518
-59791
67772
-66551
-126559
-61518
63599
-72207
-66554
2276
-85665
-61512
-61518
-64913
67517
-66591
-64919
-58955
-66557
-61515
-59791
-59782
-66548
-64916
51694
60122
-66551
-66561
63191
82391
-72213
-61508
-61515
-66552
-61512
28993
-64919
-72203
-84632
5401
-66551
-66548
-61512
-72213
-59783
29807
64999
91184
63599
-127033
-66551
56468
-64919
-62952
42361
37852
-61512
75188
-64919
63461
-58965
-61518
-68105
-61518
-61508
-68105
-68106
64091
98736
-153844
-66551
78301
-66548
61795
58400
</DataArray>
<DataArray NumberOfComponents='3' type='Float32' Name='vels' format='ascii'>
0.152894 0.000357 0.001382
2.941750 0.743093 0.251364
0.068336 -0.005151 0.000602
2.215920 0.212075 0.008790
4.011166 -0.808442 0.007605
0.239505 -0.020459 -0.002857
5.291425 0.658114 0.015048
1.176154 -0.254865 0.050298
0.080157 0.000343 0.000243
0.410087 0.080259 -0.000430
4.043204 0.516567 -0.062035
0.000936 0.001156 0.001049
0.446256 0.149068 0.003533
0.621215 0.087856 0.001135
0.016561 0.000041 0.000245
4.781214 -0.633258 0.223552
2.072237 0.492204 0.162694
1.841632 -0.359408 0.096556
0.851727 -0.032146 -0.005062
4.618366 0.202199 0.374453
4.057130 0.583726 0.325260
1.549333 0.353093 0.000880
3.564954 -0.948543 -0.100939
-0.003233 0.000217 0.000705
5.081494 -0.728568 0.061442
2.709453 -0.571234 0.037044
2.890267 0.733475 0.271122
2.291721 0.555347 0.251364
0.372381 0.259986 0.000059
0.600488 -0.175699 0.015577
0.011739 0.000009 0.000264
0.997352 0.650154 -0.000508
3.213363 -0.761119 -0.003224
1.656845 -0.012767 0.231690
30.832558 8.406263 0.242404
1.694059 0.173883 0.293947
3.361597 0.485264 0.057820
5.072144 0.616756 0.203979
1.824815 0.054814 -0.000594
4.822554 0.159554 -0.071552
0.163137 0.014290 0.007623
0.559614 0.077523 -0.000110
0.224795 0.000011 -0.000090
3.522981 0.454183 -0.022000
1.981235 -0.030602 0.001087
0.017473 0.002211 -0.000001
0.993162 -0.605788 0.331274
1.580142 0.029803 0.349836
5.038774 -0.652624 0.013047
0.382793 0.003049 0.000535
2.926561 -0.297746 0.581025
1.155041 -0.250378 0.045583
2.831417 0.656188 0.157502
0.280829 -0.150707 0.000395
-0.000899 0.000357 -0.000390
2.459462 0.587685 0.168515
1.066747 -0.224277 -0.000841
0.590212 0.000530 -0.001171
4.325011 -0.485807 0.474073
0.010282 0.003014 0.000382
2.802805 0.584623 -0.014820
3.009809 -0.323029 0.523657
2.087373 -0.571330 0.004354
2.169836 0.361286 0.178099
1.625300 0.032475 -0.102624
0.001395 0.007012 -0.011470
0.585666 0.044182 0.000606
4.340364 -0.231916 0.365021
3.114425 0.129711 0.500337
4.121013 0.480241 0.104173
3.314428 0.340714 0.441299
0.525468 0.303562 0.000931
46.675339 14.517866 -0.076229
4.966831 -0.741021 0.103249
0.539756 -0.006719 0.000173
0.041258 0.000133 -0.000263
1.666596 0.213651 -0.091226
4.058145 -0.762731 -0.344492
1.889371 0.057292 0.002064
0.055052 0.000210 0.000295
2.735449 0.467933 -0.008274
2.447300 0.404613 0.136695
4.955756 -0.666599 0.026369
5.270291 0.597518 0.093265
3.790543 -0.755850 0.004429
1.010046 0.127514 0.003237
3.198346 -0.576469 0.091015
2.891380 0.658313 0.072510
4.708169 0.714293 0.041555
5.286538 0.662013 0.016323
0.416615 0.034240 0.000762
4.335292 -0.493674 0.469468
2.376679 0.415278 0.303110
3.978817 0.514039 -0.035953
2.925429 0.736889 0.253986
0.073400 -0.010154 -0.000021
0.401037 0.000265 0.001419
1.565890 -0.337596 0.089770
4.657912 -0.665986 -0.017331
0.402313 0.016930 0.069481
4.122142 0.520750 -0.092827
0.378780 0.384959 -0.000193
4.068510 -0.838672 0.002245
-0.003995 -0.000002 0.001888
1.555476 0.237157 0.000664
3.529941 -0.711878 0.030954
2.701473 0.675651 0.006233
5.068028 0.739679 0.098900
0.030103 0.004882 -0.000293
5.282705 0.607003 0.090999
4.672356 0.220515 0.340548
0.000373 0.003093 0.000802
0.687324 -0.408733 -0.005106
2.719856 0.689432 0.014472
1.875758 -0.371275 0.170103
3.526443 -0.813141 -0.314200
-0.003033 -0.001429 0.000632
2.977139 -0.317598 0.549789
0.031008 0.000875 0.002330
2.856396 0.655576 -0.021302
0.625129 0.061258 -0.047804
1.562766 0.369950 0.099079
5.097804 -0.739710 -0.004191
5.187976 0.534039 0.131804
2.184550 -0.057329 -0.002896
-0.005641 -0.004519 -0.000072
0.063052 -0.112684 0.126129
0.384938 -0.001348 0.000332
3.941319 -0.939718 0.019078
3.094111 0.466580 0.051646
0.238799 0.004171 0.000061
0.615127 0.003312 -0.000930
2.947628 -0.317004 0.559127
3.315421 0.229466 0.303735
3.114699 0.812712 -0.006021
3.981705 0.784788 -0.179278
2.397503 0.576482 0.045044
2.262234 -0.103763 0.199135
46.605008 17.425592 -0.121316
0.010820 0.000019 -0.000336
2.453705 0.036037 -0.002453
3.273935 -0.703619 -0.146819
0.768562 -0.095023 0.003357
2.267504 0.537684 0.170558
3.031390 -0.650702 0.168210
0.798581 -0.043527 0.108054
3.130264 0.948399 0.008131
3.485382 -0.705401 0.047642
4.244217 0.718171 -0.088138
0.078912 -0.035162 -0.038296
3.309975 0.272851 0.268077
0.028963 -0.002091 0.012138
3.143853 0.750221 0.009430
3.065246 -0.673178 0.198509
4.241233 -0.744797 0.007929
3.127304 -0.734078 0.001158
3.991307 0.425104 0.155119
0.015582 -2.069945 -0.052051
0.149421 0.161662 -0.000281
0.077923 -0.000105 0.000445
0.286027 -0.000513 0.000168
2.867835 -0.745390 0.004212
4.864729 -0.743999 0.144699
4.023324 -0.834694 0.046985
0.047068 -0.000255 -0.000353
2.333838 0.209392 0.090805
2.983754 -0.330680 0.536378
0.000916 -0.000647 -0.001909
0.004023 0.000008 -0.000946
0.835083 0.237860 0.000665
0.896590 1.539503 -0.001401
2.912069 0.446903 0.058844
4.195891 -0.823559 0.007726
0.669709 -0.007544 -0.000499
3.421469 0.801853 0.232091
1.914013 0.373947 0.333840
-0.000812 0.000203 0.000123
3.917611 0.961390 0.066384
0.918499 0.203700 -0.059486
3.998002 -0.839101 0.052347
2.110943 0.365026 -0.216448
4.558290 -0.718325 -0.153658
2.517882 0.602668 0.087560
2.602964 -0.618944 0.038887
0.003160 -0.001107 -0.000532
3.746715 -0.624846 0.010220
4.537418 -0.639668 -0.001990
2.525898 -0.494562 0.096555
1.268092 0.227499 -0.000962
0.016680 -0.000084 0.000441
4.022468 -0.876011 0.007542
3.114020 0.835475 0.004567
4.032579 0.575637 0.282121
1.501351 -0.039478 -0.000088
0.062919 -0.022696 0.001271