<VTKFile type='UnstructuredGrid' version='1.0' byte_order='LittleEndian' header_type='UInt64'>
<UnstructuredGrid>
<Piece NumberOfCells='500' NumberOfPoints='500'>
<Points>
<DataArray NumberOfComponents='3' type='Float32' Name='Position' format='ascii'>
251.971652 207.898226 -4.984101
1029.059357 188.209033 -16.808274
-311.936264 330.541081 -5.964267
-3.369294 273.953761 -10.432526
1029.278797 232.304881 -20.074967
-257.290876 129.497387 -2.168066
1029.253611 152.748402 -21.930599
500.202973 248.240559 -5.747553
205.639683 192.639473 -5.117780
-191.554041 271.207898 -5.023860
757.862565 92.972137 -29.415953
-40.884940 15.103843 -29.699080
-238.137531 221.909665 -6.060680
-10.828257 169.243174 -3.978930
506.847379 202.362277 -5.062180
502.768184 312.754431 -15.384782
621.844066 167.780464 -6.691846
694.574394 350.919338 -12.285515
-329.413058 286.731554 -6.548796
1029.193912 138.980634 -19.474711
705.829874 135.969508 -13.192816
-9.110928 100.318885 -4.459418
1029.076102 228.539705 -26.569211
259.322459 350.998447 -14.817653
883.708079 287.105325 -17.272856
1028.990499 208.533237 -16.447437
-62.843151 209.128360 -23.565418
948.336187 173.734154 -9.104629
-35.570835 314.053408 -37.520031
269.573442 323.400242 -7.160536
568.004898 205.731680 -12.739674
-45.697989 165.256243 -2.620766
485.214456 370.858460 -7.950940
695.552837 221.155218 -9.699071
124.432646 232.191675 -18.054787
568.434157 190.654530 -8.191518
1029.074164 155.183680 -27.112406
1029.321351 153.281068 -16.377951
329.321185 100.029378 -33.379743
1028.982668 142.206514 -26.628187
443.133520 19.718355 -3.342194
145.408701 181.164149 -4.066909
-12.136967 177.685292 -36.992884
310.722153 44.087994 -32.527925
584.491654 214.491371 -17.698287
-315.847101 217.613003 -37.708160
-21.156169 95.797226 -35.180078
636.949694 217.643644 -9.148213
509.040290 339.814669 -22.600274
576.455143 190.330958 -7.177897
799.747085 305.520751 -10.699819
91.217292 226.715593 -6.576560
1029.044092 190.888146 -17.070591
-0.771603 298.843247 -37.296853
-491.733202 186.573330 -1.887028
640.565681 162.173177 -8.171780
75.568664 269.194493 -5.550749
-446.411247 182.508705 -31.937461
879.959768 290.215254 -16.958865
509.132639 5.530514 -11.352863
-34.150972 153.322566 -34.059053
808.636096 304.184126 -10.284559
250.501627 333.025249 -9.567253
616.320538 181.992872 -10.826179
691.306438 225.553788 -28.618626
-55.249163 267.725485 -37.413172
491.704883 91.759127 -36.643515
926.235297 286.747137 -19.494276
765.396471 75.057718 -7.754309
1029.030335 140.847806 -10.327024
730.363243 81.174677 -10.918309
-361.091034 183.655934 -34.996087
358.434104 377.111647 -21.447470
978.240477 258.406229 -18.172066
11.800149 240.111420 -3.022800
375.495719 246.583675 -27.114657
621.081449 217.568970 -28.642404
1029.088630 226.583231 -26.791639
569.852840 197.762656 -9.047350
619.187934 181.813977 -13.390841
-61.507038 115.300773 -6.965794
721.371564 182.925872 -13.618004
718.289535 319.594351 -21.707995
1029.275264 140.263570 -17.033113
1029.110714 228.986199 -22.802082
-10.308152 169.944361 -3.671584
353.946416 374.997408 -12.522744
999.505691 182.625516 -16.077629
1029.304192 140.303527 -20.675616
1029.296586 152.742705 -21.728450
-4.392051 234.882209 -35.316220
904.364367 284.405700 -16.858909
707.222749 179.814755 -14.481860
786.950500 99.007722 -29.330236
1029.213633 188.409014 -16.858498
-54.234066 234.368966 -2.650123
-109.313583 225.742020 -2.482251
517.669968 256.073633 -6.182037
641.002886 332.035709 -23.431766
739.182022 66.349863 -6.844180
817.753520 103.662562 -29.704452
-178.022785 370.859536 -12.104179
376.874596 272.494933 -16.008042
-432.258416 176.908985 -26.665722
-390.920769 245.643594 -20.005519
1024.734952 231.217949 -10.076322
10.903010 215.809551 -24.100872
1029.318341 165.992030 -17.959244
-362.938897 249.276853 -19.838647
1028.977543 140.299234 -17.001177
1029.189046 140.141349 -19.420439
-502.153341 192.248337 -9.911164
15.823423 310.042376 -3.415171
692.996680 171.307698 -20.148181
642.879059 234.838683 -7.756571
771.195940 248.052743 -28.725520
314.647900 175.238890 -26.878826
654.140548 334.304232 -10.471265
-300.005465 336.433902 -5.445162
340.279084 77.878404 -26.885322
-82.931166 23.411491 -35.917770
520.503298 126.673806 -4.972270
598.103978 354.787193 -15.003264
1029.386622 140.349597 -17.517165
600.677208 215.339596 -8.857598
-15.490962 321.479361 -33.868816
377.639320 41.467018 -2.348081
573.279059 210.925939 -6.990896
1027.973021 230.016518 -21.899823
736.204614 67.645400 -28.370833
-161.917922 74.366065 -4.801643
-295.093589 213.447724 -5.143035
822.104046 300.517031 -10.318629
1029.115912 138.104862 -11.754595
740.848351 170.089207 -23.826629
859.096470 158.261159 -27.805510
568.860456 165.428288 -8.211426
679.785264 220.707170 -17.463493
337.805889 370.516032 -22.858109
-312.053830 211.470665 -3.589985
622.691800 180.167151 -20.141590
870.146647 238.659133 -27.335938
478.472773 79.584886 -36.563821
1000.686310 180.670310 -9.100487
1028.982673 228.031097 -11.093356
307.375589 364.730456 -10.524051
471.112327 5.695721 -19.751459
989.741170 237.995714 -10.524232
829.988971 158.915390 -29.135063
381.472231 52.266270 -10.001146
945.389981 117.184349 -11.224110
504.373429 321.037725 -6.090582
1029.072949 189.720784 -13.672791
1029.126679 229.823613 -11.368067
602.123727 370.160882 -22.284677
-232.973424 348.460767 -13.120738
570.065158 39.342211 -11.008512
-258.892232 180.729335 -32.110381
-64.616898 222.649321 -2.971319
-122.870671 225.605466 -5.599668
623.263552 220.804374 -12.469175
-259.550998 342.048361 -13.214840
830.108266 296.922277 -18.503631
3.571130 276.092100 -21.609003
77.776478 191.126875 -6.352842
649.796604 217.417746 -13.627586
698.445426 324.930854 -10.132756
315.732431 182.242853 -25.701996
483.855015 3.677240 -13.057955
295.532853 28.424143 -14.589117
-239.837756 354.327189 -19.022583
774.516322 77.001961 -27.757234
1029.312762 229.305865 -15.668280
491.044240 219.565944 -4.568461
753.535578 173.577470 -13.022697
676.913311 178.546243 -12.317221
-521.917035 274.711523 -37.133444
629.054977 170.015559 -19.589035
644.301544 186.144058 -9.635521
1029.259166 229.986926 -17.220021
635.494572 180.305828 -27.270946
506.342987 321.715376 -25.346070
614.770221 162.727198 -8.021630
593.644792 363.390066 -10.045629
90.115914 179.130541 -26.897113
793.617147 328.282039 -23.646576
747.929705 314.815607 -23.133729
127.797550 238.642534 -15.199085
-279.471153 176.067973 -19.932725
-284.787964 290.269139 -3.326421
177.643131 202.747837 -24.516717
850.310034 176.313018 -24.067814
743.606524 139.702191 -12.354249
587.666812 214.351618 -28.586442
-29.316914 325.942127 -2.766194
1029.246652 152.097065 -21.274371
1029.238727 166.185289 -18.220476
508.895778 5.791558 -12.221047
952.742531 154.703790 -11.506650
738.941647 68.851138 -28.239004
1028.978325 226.681346 -19.098767
1029.070636 229.001683 -26.946571
-0.716846 313.236962 -34.885806
767.572644 94.202244 -26.432257
454.833024 4.674473 -6.229796
1029.134247 165.425647 -17.916420
-46.014153 91.888647 -4.884255
543.587180 326.690829 -10.225099
1029.191202 138.906774 -12.100933
-309.039485 182.271015 -2.390198
607.781544 214.792881 -15.924823
1020.564184 208.312278 -15.434779
728.947150 314.031427 -18.616065
929.879353 287.095463 -18.622781
747.659420 70.281702 -26.932210
1029.125480 163.915666 -20.865933
812.669299 175.030819 -12.075656
580.281443 213.941932 -28.569274
694.532072 173.255833 -11.121794
-103.022442 17.724623 -34.341770
1029.130325 227.908705 -11.363294
-171.334689 179.659294 -29.475269
-155.308485 66.977839 -34.283842
907.628462 179.810927 -20.944081
1029.089074 228.582486 -11.134421
643.669761 42.571637 -11.858068
635.114886 179.367400 -25.955929
-3.314943 223.798156 -35.975942
469.297218 5.677445 -19.778905
552.272360 161.001229 -7.983055
793.457246 99.336003 -28.067842
29.700820 251.435141 -3.315760
6.692614 231.744665 -36.082383
1005.947855 159.286649 -15.334168
503.778204 30.833569 -9.501852
87.762799 304.112706 -7.067529
898.767518 179.947512 -20.531688
10.061000 229.277722 -33.075416
373.055884 240.418980 -13.013756
370.047123 374.955390 -7.734530
-17.393477 103.180900 -34.773302
560.638284 192.260589 -7.944428
783.553446 168.727624 -26.383964
753.340966 170.763734 -9.052774
1029.088616 227.990706 -18.525192
-85.548746 214.983837 -29.294709
568.504154 197.829725 -29.000947
316.615396 366.325985 -13.170747
462.161098 23.807171 -6.225901
-74.634775 111.250981 -34.431412
629.652010 220.186932 -8.164020
758.154367 219.315808 -16.573693
650.216048 364.682646 -15.046523
585.480195 368.353087 -17.503852
929.693585 284.633032 -16.985750
-47.270741 190.497180 -4.888941
311.440939 143.665951 -24.996965
-238.633228 356.876229 -31.055598
-196.412939 312.506242 -37.000863
497.577532 204.695344 -6.448505
318.416236 188.496467 -17.846812
27.192664 238.886324 -3.458892
1028.992364 140.724015 -18.226469
672.031720 188.355694 -14.312389
848.062847 295.951488 -11.971626
1028.982169 140.578835 -8.523235
-49.737160 184.692980 -36.837902
-498.811847 188.721808 -24.646757
946.053822 172.256098 -26.605091
-225.691659 270.010720 -4.099223
839.401314 297.538498 -21.626937
-405.668107 126.133257 -35.777801
1029.055936 181.494904 -18.997324
-137.821660 173.144804 -12.713259
1029.168282 189.604127 -16.148881
-257.418548 175.500216 -26.312891
751.217629 173.026220 -25.863958
737.108303 140.692251 -19.730849
960.314960 263.267883 -17.977085
641.368343 220.584454 -19.024408
831.814371 299.238213 -21.516628
960.940351 263.109895 -19.007638
767.602090 74.215185 -27.133124
633.219293 351.539896 -21.895487
582.502030 167.569839 -7.612341
-125.994529 109.984216 -34.147375
812.144787 86.748431 -33.270866
-27.966455 353.981269 -4.331453
995.705683 237.911079 -23.501087
-84.993262 279.489478 -31.779678
516.046199 310.984309 -6.279113
987.025482 176.390635 -9.279653
1029.062089 229.606706 -11.842059
-492.442543 185.852244 -3.093269
-91.235488 30.140752 -33.864613
578.863668 185.570095 -29.427439
1029.055737 139.105929 -11.640209
-177.951307 119.809750 -31.707324
625.725501 170.467244 -20.315290
-332.599354 211.383612 -4.566480
-215.339385 216.864434 -12.653546
967.323536 140.983778 -17.650423
577.952762 260.940860 -6.939251
411.591621 245.039275 -3.410562
531.086774 196.209751 -7.481564
1029.256785 153.702561 -22.613375
869.698412 178.375284 -19.568188
232.062032 288.417435 -20.279866
-123.357050 64.702463 -33.378487
525.721133 328.574646 -24.054759
907.105397 121.963880 -27.872361
-363.285291 211.588672 -36.776193
-187.594264 351.618558 -26.729696
1029.273908 151.732683 -17.452964
1029.014351 139.407205 -11.818104
-276.933656 214.564298 -4.262537
574.076149 158.035877 -32.182919
17.201151 197.312816 -3.791355
878.221490 287.957033 -21.230392
618.626334 186.683377 -11.477418
793.327262 245.531697 -28.319745
1014.595196 233.071603 -10.428224
566.518694 204.512970 -29.804235
269.251530 347.814134 -9.507024
-24.900051 204.757790 -35.407623
1012.961725 209.229055 -16.017445
30.555960 211.039287 -3.441160
585.224048 41.726978 -27.722555
842.403076 153.368267 -18.483840
653.188043 171.085932 -11.175751
-134.324181 221.107994 -2.959503
-210.881177 175.204285 -5.454754
348.045670 15.986254 -29.342322
1029.220334 140.786220 -22.054353
-23.109722 231.858778 -37.689469
1029.175277 141.288491 -25.554240
314.627627 180.591714 -32.831780
567.004769 267.234565 -34.752054
142.068033 180.624776 -6.153055
1029.228811 229.056026 -21.423484
963.366679 241.079441 -9.877672
-206.619740 219.529417 -32.292030
945.880647 122.207461 -10.299783
318.077994 342.481047 -28.138121
-47.316497 75.944582 -34.168597
777.284346 173.216926 -22.417836
-63.760110 351.705780 -2.548655
-30.998786 276.737251 -19.395336
313.326791 136.671240 -31.155992
440.573704 73.250998 -5.466071
952.045398 174.845040 -9.331340
771.885908 76.060507 -27.328329
-386.721168 311.640025 -6.181025
549.915674 168.425169 -15.595016
72.010829 285.010233 -6.104183
-316.043151 218.135152 -26.367579
256.181718 159.090755 -6.317023
873.058168 307.417216 -19.813324
579.069368 338.070317 -8.410919
480.060777 378.033039 -24.668004
1029.137774 227.226450 -10.712844
1029.144133 141.824809 -12.094427
332.555661 362.880761 -8.552594
1029.072346 230.843770 -24.585391
-82.654759 17.254558 -31.768596
328.603508 15.102888 -14.560767
-125.810107 211.967092 -27.745698
42.982755 256.895638 -35.799350
-247.842823 126.846722 -26.223347
590.690939 117.327873 -5.808285
-97.905583 214.624561 -29.160001
-234.452482 219.681961 -5.680532
1008.823476 180.596831 -11.851187
499.770154 312.100949 -23.554050
1029.129728 164.701498 -20.667179
-72.072381 209.894117 -22.412574
387.753363 289.169190 -6.610190
448.598797 37.300076 -5.211372
691.638788 168.839894 -9.264165
891.320137 300.339217 -16.847505
1029.292222 139.341657 -20.537809
892.886851 102.934252 -8.855212
294.453789 40.559534 -7.480272
921.955776 112.073082 -9.039458
-501.665248 193.597216 -17.238762
422.364659 386.234165 -5.736371
1029.087163 227.049554 -11.271518
584.121316 187.586116 -19.383071
534.200912 385.582059 -18.254176
-181.888997 27.451458 -11.362522
497.078153 313.124759 -25.360620
-414.174619 211.982498 -37.986684
1011.539164 186.492606 -20.430822
482.870884 98.542858 -9.113215
1028.984297 152.167014 -15.410153
37.703570 237.008436 -34.309912
653.422008 43.914392 -6.817178
-60.318331 385.244190 -34.786759
726.923068 171.694998 -24.116636
-276.736164 178.329689 -5.478818
590.384898 214.862818 -9.266324
-351.582281 78.033594 -26.518014
65.560868 193.701806 -23.525378
-39.469821 373.154682 -36.016404
778.730363 309.476899 -22.874986
694.574394 55.493022 -7.741189
312.369669 144.838780 -5.111043
1029.189180 152.203793 -9.786901
621.914351 181.981503 -10.706046
778.645815 144.660528 -19.109613
485.244082 103.829777 -6.808513
793.407845 99.477263 -28.158297
529.821714 31.558042 -6.879825
-289.612703 340.311846 -12.502869
1028.992859 189.529076 -21.214293
340.114367 30.153762 -32.902908
886.845672 178.270288 -13.502574
61.467150 263.105168 -11.667094
-157.179715 215.066923 -11.248240
1029.067094 190.358882 -21.601804
714.899669 251.354012 -26.571117
-10.991456 103.597301 -35.742903
359.881802 329.308826 -7.042420
735.282758 183.706505 -20.260987
526.666363 160.869215 -7.219297
631.175468 169.250445 -23.594682
984.488856 158.972147 -28.512721
246.034100 212.744323 -5.862617
1029.114841 139.297521 -11.567960
393.833069 252.983778 -4.245272
527.736857 160.214639 -23.380954
312.229101 21.364796 -10.253621
907.697934 217.244381 -15.125262
177.669146 174.674685 -23.473117
-501.846677 193.792816 -17.637424
-32.950119 220.646176 -36.148823
781.635485 171.843135 -9.827838
1029.163817 184.148452 -21.974278
831.082140 295.600089 -10.261867
-46.338245 186.414748 -35.425358
1029.328978 136.843542 -18.881703
18.389707 278.959004 -31.621057
1029.222021 229.310936 -11.098716
1029.172426 140.413768 -21.018412
-172.419489 182.011845 -22.031317
827.350080 154.203494 -28.986794
692.295972 129.307428 -7.485141
617.395529 47.132847 -6.575344
982.550941 258.861612 -18.130403
-0.373749 239.326256 -37.025471
9.941375 251.839039 -3.120338
938.601675 117.982170 -10.397756
799.548375 102.678156 -28.219236
361.520610 235.857860 -26.554117
-14.852712 241.374324 -36.837569
662.763185 223.766193 -28.749558
74.815488 212.056137 -6.290059
946.366561 178.313375 -15.829696
1029.022018 152.098673 -9.721617
538.634711 152.398750 -8.152731
-220.599346 42.591035 -31.835777
607.898946 338.668332 -23.915537
556.129205 180.715991 -12.265140
8.381370 225.924261 -35.441043
-273.666552 218.140275 -6.062329
774.382623 73.474565 -10.546230
472.990117 25.561731 -6.112274
983.168286 176.511588 -9.634875
54.672802 241.339113 -35.040268
851.212103 153.745293 -10.328271
-35.518901 314.023459 -37.658136
503.241207 295.948786 -6.160387
-41.298277 368.084721 -35.913269
86.161854 174.287612 -4.709089
400.884835 273.474580 -5.355285
801.129669 80.413772 -8.313570
21.751907 207.563905 -3.825655
494.264369 299.313135 -23.969465
594.482264 215.434506 -8.414681
-238.249320 213.473422 -19.366039
-40.823898 359.005604 -37.295784
749.586828 170.314716 -8.812150
-40.447186 188.545436 -3.163615
764.044227 304.090113 -22.976179
323.442967 363.272805 -30.494305
1029.182799 226.565878 -26.855878
-115.376889 215.076829 -29.343367
344.249749 367.603180 -30.239834
-52.791226 200.642175 -29.006322
534.073398 165.533112 -7.035924
715.812191 347.324766 -24.713519
741.111162 341.978710 -21.959637
256.915634 342.529253 -27.597894
89.964980 177.841018 -29.262802
267.517088 163.894989 -9.560371
1029.072314 141.391280 -11.738849
-73.871754 108.591076 -9.866196
643.146235 49.163427 -6.066439
41.777097 269.254653 -10.504374
640.615026 216.915817 -17.339579
</DataArray>
</Points>
<PointData>
<DataArray NumberOfComponents='1' type='Int32' Name='ParticleType' format='ascii'>
1
1
1
1
1
1
1
1
1
1
1
1
1
1
1
1
1
1
1
1
1
1
1
1
1
1
1
1
1
1
1
1
1
1
1
1
1
1
1
1
1
1
1
1
1
1
1
1
1
1
1
1
1
1
1
1
1
1
1
1
1
1
1
1
1
1
1
1
1
1
1
1
1
1
1
1
1
1
1
1
1
1
1
1
1
1
1
1
1
1
1
1
1
1
1
1
1
1
1
1
1
1
1
1
1
1
1
1
1
1
1
1
1
1
1
1
1
1
1
1
1
1
1
1
1
1
1
1
1
1
1
1
1
1
1
1
1
1
1
1
1
1
1
1
1
1
1
1
1
1
1
1
1
1
1
1
1
1
1
1
1
1
1
1
1
1
1
1
1
1
1
1
1
1
1
1
1
1
1
1
1
1
1
1
1
1
1
1
1
1
1
1
1
1
1
1
1
1
1
1
1
1
1
1
1
1
1
1
1
1
1
1
1
1
1
1
1
1
1
1
1
1
1
1
1
1
1
1
1
1
1
1
1
1
1
1
1
1
1
1
1
1
1
1
1
1
1
1
1
1
1
1
1
1
1
1
1
1
1
1
1
1
1
1
1
1
1
1
1
1
1
1
1
1
1
1
1
1
1
1
1
1
1
1
1
1
1
1
1
1
1
1
1
1
1
1
1
1
1
1
1
1
1
1
1
1
1
1
1
1
1
1
1
1
1
1
1
1
1
1
1
1
1
1
1
1
1
1
1
1
1
1
1
1
1
1
1
1
1
1
1
1
1
1
1
1
1
1
1
1
1
1
1
1
1
1
1
1
1
1
1
1
1
1
1
1
1
1
1
1
1
1
1
1
1
1
1
1
1
1
1
1
1
1
1
1
1
1
1
1
1
1
1
1
1
1
1
1
1
1
1
1
1
1
1
1
1
1
1
1
1
1
1
1
1
1
1
1
1
1
1
1
1
1
1
1
1
1
1
1
1
1
1
1
1
1
1
1
1
1
1
1
1
1
1
1
1
1
1
1
1
1
1
1
1
1
1
1
1
1
1
1
1
1
1
1
1
1
1
1
1
1
1
1
1
1
1
1
1
1
1
1
1
1
1
1
1
1
1
1
1
1
1
1
1
1
1
1
1
1
</DataArray>
<DataArray NumberOfComponents='1' type='Int32' Name='ParticleID' format='ascii'>
0
1
2
3
4
5
6
7
8
9
10
11
12
13
14
15
16
17
18
19
20
21
22
23
24
25
26
27
28
29
30
31
32
33
34
35
36
37
38
39
40
41
42
43
44
45
46
47
48
49
50
51
52
53
54
55
56
57
58
59
60
61
62
63
64
65
66
67
68
69
70
71
72
73
74
75
76
77
78
79
80
81
82
83
84
85
86
87
88
89
90
91
92
93
94
95
96
97
98
99
100
101
102
103
104
105
106
107
108
109
110
111
112
113
114
115
116
117
118
119
120
121
122
123
124
125
126
127
128
129
130
131
132
133
134
135
136
137
138
139
140
141
142
143
144
145
146
147
148
149
150
151
152
153
154
155
156
157
158
159
160
161
162
163
164
165
166
167
168
169
170
171
172
173
174
175
176
177
178
179
180
181
182
183
184
185
186
187
188
189
190
191
192
193
194
195
196
197
198
199
200
201
202
203
204
205
206
207
208
209
210
211
212
213
214
215
216
217
218
219
220
221
222
223
224
225
226
227
228
229
230
231
232
233
234
235
236
237
238
239
240
241
242
243
244
245
246
247
248
249
250
251
252
253
254
255
256
257
258
259
260
261
262
263
264
265
266
267
268
269
270
271
272
273
274
275
276
277
278
279
280
281
282
283
284
285
286
287
288
289
290
291
292
293
294
295
296
297
298
299
300
301
302
303
304
305
306
307
308
309
310
311
312
313
314
315
316
317
318
319
320
321
322
323
324
325
326
327
328
329
330
331
332
333
334
335
336
337
338
339
340
341
342
343
344
345
346
347
348
349
350
351
352
353
354
355
356
357
358
359
360
361
362
363
364
365
366
367
368
369
370
371
372
373
374
375
376
377
378
379
380
381
382
383
384
385
386
387
388
389
390
391
392
393
394
395
396
397
398
399
400
401
402
403
404
405
406
407
408
409
410
411
412
413
414
415
416
417
418
419
420
421
422
423
424
425
426
427
428
429
430
431
432
433
434
435
436
437
438
439
440
441
442
443
444
445
446
447
448
449
450
451
452
453
454
455
456
457
458
459
460
461
462
463
464
465
466
467
468
469
470
471
472
473
474
475
476
477
478
479
480
481
482
483
484
485
486
487
488
489
490
491
492
493
494
495
496
497
498
499
</DataArray>
<DataArray NumberOfComponents='1' type='Int8' Name='IsActive' format='ascii'>
1
0
1
1
0
1
0
1
1
1
1
1
1
1
1
1
1
1
1
0
1
1
0
1
1
0
1
1
1
1
1
1
1
1
1
1
0
0
1
0
1
1
1
1
1
1
1
1
1
1
1
1
0
1
1
1
1
1
1
1
1
1
1
1
1
1
1
1
1
0
1
1
1
1
1
1
1
0
1
1
1
1
1
0
0
1
1
1
0
0
1
1
1
1
0
1
1
1
1
1
1
1
1
1
1
1
1
0
1
0
0
1
1
1
1
1
1
1
1
1
1
1
1
0
1
1
0
1
1
1
1
1
1
0
1
1
1
1
1
1
1
1
1
1
0
1
1
1
1
0
1
1
0
0
1
1
1
1
1
1
1
1
1
1
1
1
1
1
1
1
1
1
0
1
1
1
1
1
1
0
1
1
1
1
1
1
1
1
1
1
1
1
1
1
1
0
0
1
1
1
0
0
1
1
1
0
1
1
0
1
1
1
1
1
1
0
1
1
1
1
0
1
1
1
0
1
1
1
1
1
1
1
1
1
1
1
1
1
1
1
1
1
1
1
0
1
1
1
1
1
1
1
1
1
1
1
1
1
1
1
1
1
0
1
1
0
1
1
1
1
1
1
0
1
0
1
1
1
1
1
1
1
1
1
1
1
1
1
1
1
1
1
0
1
1
1
0
1
1
1
1
1
1
0
1
0
1
1
1
1
1
1
1
0
0
1
1
1
1
1
1
1
1
1
1
1
1
1
1
1
1
1
1
0
1
0
1
1
1
0
1
1
1
1
1
1
1
1
1
1
1
1
1
1
1
1
1
1
1
1
0
0
1
0
1
1
1
1
1
1
1
1
1
1
0
1
1
1
1
1
0
1
1
1
1
0
0
1
1
1
1
1
1
1
0
1
1
1
1
1
1
1
1
1
1
1
1
0
1
1
1
1
1
1
0
1
1
1
1
0
1
1
1
1
1
1
1
1
0
1
1
1
1
1
1
1
1
0
1
1
0
1
0
0
1
1
1
1
1
1
1
1
1
1
1
1
1
1
0
1
1
1
1
1
1
1
1
1
1
1
1
1
1
1
0
1
1
1
1
1
1
1
1
1
1
0
1
1
1
1
1
1
1
1
1
0
1
1
1
1
</DataArray>
<DataArray NumberOfComponents='1' type='Int32' Name='ParticleTetID' format='ascii'>
25273
-61515
8048
8194
-58962
8750
-66558
64711
39115
10873
64380
5628
7472
2810
64820
64808
57117
59998
6625
-66554
62104
15193
-58961
39068
71287
-70586
622
62787
22679
29433
74992
23796
52079
62895
91518
73623
-66561
-66555
25107
-66557
53534
34274
2932
30289
66752
7469
105
62681
66339
74865
64283
31501
-61515
11482
19262
58595
29990
11389
57013
69394
339
62211
32999
59908
65136
18971
54088
74491
71159
-66551
71753
34
41625
70334
31808
82454
61212
-58965
74957
61224
17877
63186
64269
-66554
-58961
2810
41620
68300
-66557
-66558
6262
57372
65364
62472
-61515
3026
12690
70399
67654
59529
56894
7889
47366
3808
6111
58955
32303
-59786
5065
-66554
-66554
2273
40088
59265
65037
67800
25556
57387
9901
44814
2771
78662
67814
-66554
67415
15191
-146594
59709
58961
59538
11450
7435
64101
-66588
71416
69924
72039
62918
32463
7454
61227
57488
52325
68297
-58955
34564
52405
78466
59126
-156163
58288
66367
-61515
-58955
68337
9256
59279
7286
9937
920
61205
9869
65005
31078
100116
65994
65759
43697
52942
27726
12176
71166
-58958
51680
70384
63131
10690
57121
72687
-58958
72966
66376
73569
67054
98736
76222
69904
91007
9349
6716
27711
68913
62032
70573
3512
-66558
-59786
69394
70709
59538
-58958
-58965
16936
62435
53245
-59786
18578
79635
-66551
7238
67418
72638
62306
76669
67278
-59788
56993
70538
59260
11211
-58955
9391
1185
67473
-58955
58900
58241
5921
52405
58179
60474
25362
31822
66066
67595
42447
67851
31819
82933
24879
107
56811
76726
70385
-58958
14828
74964
26104
51319
18267
68981
62972
74330
56688
76669
14437
45137
12182
8981
52273
45080
25364
-66554
63132
61799
-66551
15712
19217
62794
6446
65007
2213
-61514
6953
-61515
7282
70390
64123
79676
62684
65009
79676
71166
61786
72237
4695
71095
4538
77752
463
66368
79366
-58955
19262
16991
73724
-66551
8797
57123
11108
7403
57446
66855
-126563
62859
-66558
58471
26201
13155
71183
76962
3400
1434
-66555
-66551
7418
72049
36542
77157
61223
70824
60233
69798
29561
53
57337
42823
59880
62882
57784
2070
9397
25356
-66557
1097
-66557
43699
66095
26029
-58962
77890
9463
56417
29534
23901
75646
14798
17664
51008
87483
69069
71166
10117
71827
29414
7462
95373
60379
63869
51778
-58955
-66551
32205
-58961
2767
36438
5414
34217
6778
59383
22316
9415
76271
51598
-59788
16713
82961
51931
59261
59516
-66557
58701
29379
78573
2276
-112399
-58955
60433
61298
7763
51598
16270
73485
53157
-66555
25073
72975
1763
60311
7327
62753
12232
34624
1367
73289
56955
45128
-66552
61223
64177
52923
60474
70059
9760
-61518
29948
79566
30011
7511
-61518
63802
15209
28659
63099
75891
57124
60204
25274
-66551
127228
75898
30802
72510
50284
2276
14074
76720
-61518
65003
14453
-66591
24476
-58955
-66557
7391
62852
66711
58105
78416
5884
30728
56379
60474
37288
6263
65174
34669
59460
-66552
75189
7682
68933
76774
31191
7418
71159
51949
56776
28203
69917
22678
75673
16019
96877
-127033
74219
42824
52139
62751
7477
2913
70383
15698
62289
32216
-58965
3902
43555
17166
71825
68410
71649
39072
98736
95831
-66551
18255
58897
29397
62684
</DataArray>
<DataArray NumberOfComponents='3' type='Float32' Name='vels' format='ascii'>
3.396477 1.673564 -0.005175
2.941750 0.743093 0.251364
0.025123 0.007350 -0.000720
2.008889 -0.444606 -0.000207
4.011166 -0.808442 0.007605
0.290095 -0.044369 0.001508
5.291425 0.658114 0.015048
1.209198 0.292652 0.006762
1.858052 0.293207 0.007696
1.199872 0.160976 -0.000623
1.578822 0.281257 -0.000388
0.627088 0.058542 0.005282
0.032683 0.000205 -0.000626
0.760944 0.453075 -0.001143
0.450780 -0.181443 -0.000934
0.707195 0.520690 -0.000500
1.262600 0.037446 0.000798
2.191884 -0.535181 -0.002928
0.058594 0.009407 -0.002035
4.618366 0.202199 0.374453
0.076611 0.012216 0.000384
0.658045 0.826695 0.000136
3.564954 -0.948543 -0.100939
0.487455 0.668472 0.000176
3.652824 -0.755233 0.000802
2.709453 -0.571234 0.037044
1.026226 0.004932 0.010227
2.582222 -0.071120 0.000777
0.322981 -0.232832 0.000579
0.478827 0.571146 -0.000507
0.013785 0.042756 0.004831
0.494398 0.297704 0.000240
1.460678 -0.488820 -0.046059
1.170130 -0.019075 -0.001557
1.504893 -4.459427 0.327820
0.493940 -0.232348 0.013811
3.361597 0.485264 0.057820
5.072144 0.616756 0.203979
1.258084 -1.584236 0.083141
4.822554 0.159554 -0.071552
4.475618 0.772938 -0.815971
2.200689 -0.151159 -0.002461
0.005110 0.002336 -0.000000
0.902119 -0.889639 -0.004796
0.062726 0.000258 0.000023
0.177764 0.002158 0.001470
0.432954 0.549931 -0.000313
0.324522 -0.000284 0.000553
0.996263 -0.048998 -0.000408
0.068351 -0.020158 0.001129
2.204109 -0.416060 0.003841
2.852825 -1.299784 0.009073
2.831417 0.656188 0.157502
0.099945 -0.045159 0.000034
0.000008 0.000150 -0.000245
1.999340 0.091658 -0.000755
0.241700 -0.158296 -0.000078
0.663806 0.001744 -0.000301
3.702261 -0.754056 0.001892
0.766326 0.011239 -0.001198
0.960948 0.645288 -0.000198
2.433484 -0.476757 0.006828
0.416340 0.673763 -0.000049
1.184168 0.008538 0.002223
1.782011 -0.045255 -0.000699
0.244652 -0.015293 0.000196
0.013832 0.015561 -0.000015
3.572674 -1.795526 -0.000178
2.119899 0.538123 0.000092
4.121013 0.480241 0.104173
2.420480 0.476156 0.002520
0.000869 -0.001621 0.000014
1.973571 0.783210 0.092519
4.266170 -0.820607 0.000283
0.857023 -0.037987 -0.000255
1.125864 0.249000 0.827124
0.687271 -0.000869 0.001143
4.058145 -0.762731 -0.344492
0.000871 -0.002467 0.001368
0.024190 0.000006 -0.000439
0.669564 0.264223 -0.001722
1.581423 0.027165 0.001289
2.398681 -0.460937 0.001283
5.270291 0.597518 0.093265
3.790543 -0.755850 0.004429
0.709080 0.423336 -0.001241
1.483139 0.605282 0.017570
3.955016 0.928305 -0.000772
4.708169 0.714293 0.041555
5.286538 0.662013 0.016323
0.168610 0.012410 -0.000008
4.184065 -1.277678 0.008982
1.632349 0.034103 0.000693
2.426266 0.454234 -0.001808
2.925429 0.736889 0.253986
0.535490 -0.040393 -0.000061
0.514220 0.002683 -0.000443
0.295029 0.037289 -0.000881
2.016734 -0.349493 -0.004282
1.950566 0.459877 0.000207
2.713825 0.507175 -0.006236
0.053279 0.015640 -0.000359
4.333156 -1.120010 2.535086
-0.003997 -0.000002 -0.001149
0.009326 0.001503 0.000723
2.982870 -0.634116 0.525992
3.078898 0.468737 -0.000122
5.068028 0.739679 0.098900
0.151543 0.024264 0.002175
5.282705 0.607003 0.090999
4.672356 0.220515 0.340548
0.001086 0.001067 0.000731
0.882580 -0.299914 0.000396
2.521194 0.104465 0.002708
1.413394 -0.041919 0.000328
2.728508 -0.265336 0.000672
-0.180737 -1.023298 -0.057420
1.770291 -0.323994 0.000194
0.568361 0.160185 -0.000987
3.063164 -3.517554 0.088105
0.527633 0.029870 -0.000570
0.410380 0.410586 -0.000476
2.215960 -0.010904 0.001231
5.187976 0.534039 0.131804
0.011232 0.000029 0.000170
0.015360 -0.009742 0.000301
0.063052 -0.112684 0.126129
0.123840 0.134858 0.011294
3.991734 -0.913593 -0.021251
2.813246 0.653771 0.000131
0.681703 -0.123183 -0.000986
0.680816 0.007513 -0.001294
2.116267 -0.419318 0.007296
3.315421 0.229466 0.303735
2.974396 0.199555 0.000789
1.785252 0.256730 -0.008096
1.185925 0.018976 0.000284
0.555455 -0.003051 -0.001834
1.433284 0.509825 -0.000929
0.413438 0.003126 -0.000701
0.055272 -0.000207 0.001744
3.153173 -0.364718 -0.009852
0.486244 0.343109 0.000154
3.041703 0.841624 -0.012498
3.031390 -0.650702 0.168210
0.910624 0.290940 0.000383
0.226171 0.001979 -0.011844
4.280986 -0.658512 0.001635
3.380692 0.373011 0.000532
0.078912 -0.035162 -0.038296
3.295281 1.048704 0.001983
0.139443 0.084016 -0.001855
3.143853 0.750221 0.009430
3.065246 -0.673178 0.198509
2.029396 -0.064528 -0.004166
2.775970 0.656141 -0.002683
2.068438 0.011581 0.000523
0.019291 -0.000006 0.001655
0.947108 -0.163247 -0.000514
0.322437 0.011586 -0.001005
0.067596 -0.000026 0.000208
2.479722 0.652639 -0.004378
3.388971 -0.670080 0.000661
2.632257 -0.545795 -0.001842
0.220064 0.066956 0.006660
1.745336 -0.034682 -0.000370
1.853634 -0.359886 0.001522
0.001066 0.003383 -0.002398
0.137924 0.000483 -0.000641
0.686128 -0.698989 -0.001737
0.083507 0.024408 0.000321
3.146531 0.726894 0.000967
4.195891 -0.823559 0.007726
0.628526 -0.226680 0.000761
1.913171 0.074038 0.003573
0.336826 0.000285 -0.000236
-0.000712 0.000277 0.000121
2.224921 0.078148 0.001508
0.766017 0.005173 0.000650
3.998002 -0.839101 0.052347
1.191414 0.016824 -0.001019
0.738743 0.375552 0.001091
1.471118 0.049155 0.000058
1.953317 -0.003714 -0.000172
-0.004198 0.002763 0.008700
3.127591 -0.738808 0.000293
2.694062 -0.568696 0.000213
0.487024 -2.530307 0.309910
0.194546 0.004287 0.000343
0.245587 0.040671 -0.000791
10.474756 -0.131856 0.006275
3.874640 0.171842 0.001633
0.546696 0.085675 -0.001261
0.368225 0.006197 0.003398
0.725975 -0.524353 0.000771
5.273003 0.663612 0.018242
5.040750 0.742126 0.111195
0.441400 0.003577 -0.001088
3.662107 0.323500 -0.002245
2.851123 0.658224 0.000118
3.570209 -0.858505 0.231158
3.211295 -0.716464 -0.163990
0.011728 -0.005546 0.000004
0.113527 0.018516 0.000138
0.169992 0.002502 -0.016831
5.049348 0.741882 0.100253
0.386489 0.590509 0.002112
1.037265 0.462549 0.000542
3.395705 0.225840 0.335863
0.006663 0.000010 -0.003347
0.705650 0.002575 -0.000699
2.419026 -0.369839 0.136729
0.276290 -0.045372 -0.000253
3.502270 -1.533889 -0.004166
3.069600 0.710972 0.000029