<VTKFile type='UnstructuredGrid' version='1.0' byte_order='LittleEndian' header_type='UInt64'>
<UnstructuredGrid>
<Piece NumberOfCells='500' NumberOfPoints='500'>
<Points>
<DataArray NumberOfComponents='3' type='Float32' Name='Position' format='ascii'>
-405.732394 222.783552 -4.764832
-309.295756 173.520470 -21.490543
-495.374658 277.879557 -6.199670
-375.607633 246.664596 -10.129781
-272.727797 252.526516 -22.732193
-431.910785 140.116100 -2.654871
-291.987204 156.086642 -27.961210
-374.092720 280.476960 -7.245233
-404.969493 222.199719 -4.912058
-427.363563 250.713891 -5.019526
-331.632420 154.170692 -32.468556
-484.200665 113.726324 -29.954245
-445.455187 220.535754 -5.939730
-420.290872 156.624688 -3.826594
-330.909825 237.078058 -6.798943
-255.208134 324.500821 -16.303099
-304.666529 164.749899 -9.260108
-289.254388 328.168237 -14.963845
-419.623285 263.908583 -6.347322
-274.277784 80.065296 -21.345200
-249.755934 150.769724 -16.219666
-427.374434 114.890875 -4.136292
-260.379384 246.178016 -26.005252
-363.265224 319.855409 -15.619951
-257.998454 321.931761 -19.351453
-249.567340 246.994911 -20.874010
-458.039656 212.111258 -23.845641
-299.293243 167.667554 -14.504822
-427.433876 273.353931 -37.440917
-353.939772 310.023515 -7.061521
-244.399390 237.195585 -15.950071
-445.432902 162.483630 -2.535608
-337.433790 319.901418 -11.408516
-292.707619 232.911121 -11.522662
-495.884309 274.700222 -19.885611
-336.735303 222.574898 -8.934722
-283.931369 154.875840 -27.503977
-279.008453 85.843167 -20.138156
-349.991567 220.208210 -30.981359
-308.435799 85.889145 -28.194881
-359.821219 95.110786 -7.070170
-418.332803 163.770607 -3.874880
-438.529520 159.062806 -36.793593
-404.570533 98.127181 -32.473101
-248.101986 234.832739 -21.533262
-472.672981 217.568237 -37.374415
-430.768305 119.752428 -35.199114
-250.319567 243.411933 -14.388140
-262.944607 331.415011 -22.767318
-296.257636 230.581427 -9.899050
-277.134772 312.732404 -13.506652
-423.524831 230.607537 -6.265131
-316.181436 171.150258 -18.985238
-433.842155 272.777816 -37.289135
-503.693549 195.320734 -4.200963
-366.907110 173.801808 -7.849305
-429.133204 275.820311 -5.635181
-487.193041 182.816400 -32.984881
-253.921609 329.471501 -20.798063
-357.474168 85.131149 -14.288168
-436.912395 154.680018 -33.854232
-294.453368 305.630295 -13.445349
-373.595488 314.642288 -10.020589
-300.020518 226.365820 -10.679526
-311.636911 232.551540 -31.713698
-446.666021 243.210970 -37.362724
-376.553321 173.449386 -32.717511
-257.319150 325.145759 -19.634623
-324.005935 91.515842 -9.088743
-283.276788 81.466895 -15.296058
-363.268996 115.018144 -14.373681
-486.594561 183.877354 -35.487640
-338.366756 322.343785 -21.782062
-273.413884 310.395452 -25.070893
-427.463866 229.895111 -2.860792
-419.483225 221.567756 -32.831870
-293.394457 233.593254 -29.641137
-299.410014 240.281681 -28.366179
-260.974027 233.327456 -15.232543
-297.005843 224.022766 -15.921388
-406.756080 151.156215 -6.489171
-269.629487 228.046834 -16.177041
-286.793116 321.139546 -28.067339
-301.803886 94.662270 -20.747607
-282.267106 250.823924 -20.362119
-438.377970 152.323181 -3.603470
-394.373047 305.449969 -11.660170
-330.406493 173.131902 -18.524952
-287.958920 75.697227 -23.245458
-270.026804 152.901220 -27.131285
-450.296827 225.037379 -35.315634
-256.137398 325.318712 -20.571212
-251.376852 231.813100 -18.085762
-329.011083 153.743114 -32.172469
-320.319959 174.294035 -22.792904
-463.203795 226.368666 -2.546179
-457.967557 219.763143 -2.400675
-353.434676 249.017137 -9.918331
-330.802838 299.645361 -30.916974
-334.063436 100.050865 -9.437029
-315.623933 153.595469 -31.720356
-483.437503 283.325745 -12.416855
-366.858304 279.741964 -23.714094
-433.032465 177.007499 -26.694773
-411.285953 247.425960 -18.423158
-284.514867 241.948612 -12.890743
-426.631346 179.528283 -24.703456
-250.136009 147.658151 -20.138385
-400.880030 243.833377 -19.154612
-324.475923 79.248466 -21.129877
-280.419512 85.633604 -24.494797
-502.762317 192.183713 -10.585794
-423.941366 288.740850 -3.342797
-371.896049 180.412003 -23.574938
-330.316863 237.977391 -7.073664
-315.769595 241.584904 -31.957336
-291.954496 223.244514 -24.455068
-298.922981 311.523466 -13.313684
-500.178010 279.136420 -6.016685
-436.802062 211.645856 -27.454062
-451.565124 112.269434 -36.262827
-418.381599 166.968608 -6.620614
-261.930576 331.164066 -15.802998
-274.383115 71.846475 -20.063120
-294.618612 233.930406 -10.536703
-425.438532 285.197715 -33.962563
-344.500138 147.459785 -18.044745
-302.398765 230.948713 -10.114211
-330.129288 249.600456 -23.846067
-340.658135 96.024946 -32.327961
-420.791593 129.284798 -4.741904
-479.324994 213.001296 -4.998187
-267.159686 316.735712 -14.019968
-275.410572 73.562972 -16.243724
-394.183873 179.018917 -27.456967
-314.755068 162.438105 -30.829321
-393.778166 178.034199 -8.816297
-309.528509 230.139015 -19.895571
-378.658868 313.857850 -23.478595
-491.790400 210.231754 -3.485148
-302.201899 220.626419 -20.311391
-315.632824 241.142378 -30.790707
-372.859757 172.487270 -32.322883
-256.134480 161.677846 -17.514819
-251.887465 248.655757 -14.863551
-354.184450 317.344641 -10.983066
-344.561074 77.281181 -23.610437
-297.887277 246.757589 -11.801209
-322.666067 162.017297 -31.455546
-337.824390 166.505480 -32.721650
-318.578458 89.118631 -13.176902
-326.299075 306.924721 -8.449810
-251.803039 155.020953 -18.877901
-278.531505 254.397807 -17.237265
-356.223074 314.231914 -25.303264
-512.664264 269.421294 -13.316533
-358.719927 83.083142 -14.808170
-467.644082 180.689219 -32.785254
-448.062073 220.171267 -2.764658
-431.667477 219.779161 -5.249079
-285.955355 234.197096 -11.700976
-477.634282 278.850909 -13.270359
-319.528600 297.598368 -25.188801
-401.628237 268.643640 -22.017263
-430.561912 125.604521 -6.397601
-289.803059 234.486587 -11.984211
-316.800571 297.539450 -11.597725
-311.527788 220.237020 -24.330083
-361.511725 86.298368 -14.055250
-387.709235 89.938809 -13.750142
-501.043874 278.937365 -19.719764
-349.143925 107.468374 -29.144741
-251.092867 248.549660 -19.005496
-426.550829 233.808170 -6.426387
-365.445994 179.131498 -14.927296
-294.222213 228.385371 -11.970977
-520.939532 274.003401 -37.161475
-319.355586 219.564474 -20.476211
-285.422639 237.225295 -11.035933
-246.652519 246.555778 -22.025292
-270.679862 229.119482 -24.360398
-325.341565 303.947218 -32.084501
-358.897760 170.159577 -7.740357
-339.088811 315.629421 -13.571833
-449.167767 109.564454 -26.917838
-277.109794 324.454627 -25.794373
-283.069713 322.988726 -27.537686
-477.698832 285.496007 -17.912696
-430.734795 176.111999 -19.879452
-426.592555 256.338349 -4.034168
-364.623603 282.158158 -24.947956
-335.173382 171.729433 -29.496546
-258.092904 147.928254 -15.952385
-283.041919 235.047828 -27.548675
-448.116381 273.529258 -2.707185
-289.033281 152.661054 -27.856988
-248.196901 152.320726 -20.285214
-336.518151 79.802895 -15.381467
-293.617671 144.999568 -14.066438
-342.961060 96.910392 -32.854288
-253.842919 247.528854 -23.881433
-315.972169 246.997662 -28.009044
-420.551277 286.748111 -34.857072
-311.146956 154.037902 -30.578456
-356.327545 83.199462 -10.466058
-243.375407 151.322672 -21.005477
-430.247713 130.652064 -4.822437
-347.187245 291.027242 -12.742716
-271.384465 80.589268 -17.210729
-501.829056 189.449024 -2.520133
-252.735376 235.118620 -19.048301
-268.155591 235.369662 -19.990261
-320.160079 301.126917 -19.737888
-254.022614 329.504034 -20.464426
-339.707425 90.554788 -31.967194
-256.114891 150.152145 -23.757910
-352.765545 177.015397 -14.940550
-295.335835 235.292961 -29.617672
-296.117390 162.976986 -12.719473
-457.025619 110.413305 -34.388445
-281.371903 251.025399 -15.264878
-462.955398 182.215114 -30.045298
-442.392332 133.216176 -34.327689
-316.264542 218.206455 -22.862274
-244.552722 246.806590 -16.960183
-386.986342 94.015319 -19.653519
-323.223476 223.986117 -28.693800
-467.410634 218.692890 -36.065066
-365.979266 83.399708 -24.142450
-398.358168 179.449480 -8.370779
-318.944683 147.329711 -29.863405
-436.493172 241.686253 -3.325088
-417.896223 222.256476 -35.993110
-302.773845 145.384490 -18.232914
-404.163187 99.314038 -13.245768
-423.874423 298.804525 -7.045394
-353.513774 176.989923 -24.069591
-429.098367 223.647894 -33.167294
-358.984363 218.875310 -18.765490
-342.612370 315.374909 -8.464736
-423.439227 117.198689 -34.593840
-346.602298 226.709089 -7.444998
-367.623860 176.998001 -29.152062
-328.502801 173.451189 -10.911515
-256.435640 249.511846 -22.027542
-454.557135 212.409314 -29.691042
-317.480322 228.235361 -31.633873
-357.060091 318.739609 -14.384645
-402.619038 107.769461 -6.625218
-432.112252 142.131508 -34.650551
-308.246656 228.467017 -9.761829
-244.014555 235.926893 -17.273743
-298.214371 331.150820 -17.728697
-331.609768 322.371364 -21.778892
-258.431519 327.843380 -18.608097
-445.976476 175.230798 -4.425439
-394.270140 214.791621 -24.217732
-518.465572 276.084469 -32.005908
-434.370219 258.643142 -36.896419
-395.398635 224.107405 -6.667173
-287.165691 222.310941 -17.764359
-438.975911 230.121438 -3.400455
-281.700889 87.806964 -21.688215
-254.066229 241.649656 -15.454346
-267.752929 312.118192 -15.965038
-279.623210 85.098852 -16.400404
-450.384177 172.038785 -36.864256
-498.131117 187.872487 -23.397160
-333.847892 171.525274 -28.039866
-428.065101 255.506875 -4.553728
-273.237194 318.514158 -25.462092
-429.034026 139.117106 -35.908322
-267.111936 164.642738 -24.802936
-375.730389 176.474459 -12.688586
-282.132169 168.386340 -22.241226
-430.937366 176.028308 -26.515592
-363.768358 176.073442 -28.112907
-271.268520 145.664262 -22.743740
-257.108531 328.046837 -23.048303
-278.215240 240.834979 -26.893144
-270.175895 315.755115 -26.537681
-267.838041 314.781099 -25.162704
-342.113315 94.668747 -32.122769
-261.601605 330.862206 -23.043286
-369.171426 176.392232 -9.407818
-434.084359 140.776609 -33.603520
-312.475055 89.778900 -28.397960
-445.307569 288.320347 -3.915871
-313.027161 297.574327 -27.385515
-357.205595 243.971499 -32.625639
-325.596518 304.642558 -7.894064
-282.886509 163.053806 -13.890018
-240.126127 240.835000 -19.209300
-503.047035 194.386616 -6.374212
-506.115781 129.531708 -33.601981
-314.219172 229.834711 -31.954312
-270.736417 78.757702 -16.766185
-390.107658 152.304254 -32.814241
-357.341507 213.595840 -21.871507
-500.375164 206.725929 -4.649919
-452.526789 216.001178 -12.600137
-361.481725 110.717037 -24.682769
-357.522604 285.624491 -8.037304
-240.851369 242.455103 -17.701889
-359.962239 225.441250 -6.778792
-314.700263 159.167275 -31.863166
-317.423385 174.380369 -23.907759
-368.130614 310.107365 -20.068695
-432.775228 131.678459 -33.647480
-293.561114 323.182727 -28.075957
-310.610726 155.368375 -29.705830
-500.423192 206.846326 -36.574501
-366.380183 307.679785 -26.665861
-295.683962 93.372938 -18.678331
-272.746979 77.170717 -16.185280
-473.769954 213.751934 -4.100460
-330.754990 167.921194 -31.881805
-431.098978 163.507841 -3.714352
-252.833984 330.396719 -21.207922
-289.345668 227.916211 -13.602174
-313.317652 238.666908 -32.252399
-284.178991 246.323432 -11.689645
-345.549912 223.983242 -32.390332
-374.153603 313.810881 -9.865155
-468.605496 177.394285 -35.538219
-245.689919 236.803432 -16.516922
-427.352351 171.835077 -3.507279
-354.883030 87.846562 -32.590540
-253.002495 148.692976 -21.069201
-357.228772 172.754038 -12.188732
-472.960754 216.832679 -2.903528
-459.908631 177.092574 -5.047135
-373.893634 88.449165 -31.221411
-300.163820 87.416778 -27.326375
-447.553473 226.071843 -37.633410
-302.114186 85.454970 -27.396509
-425.410280 218.329916 -31.619297
-340.299223 227.608590 -32.973784
-422.863959 159.764831 -5.848150
-255.791960 247.267771 -23.669970
-297.648118 247.660031 -10.757068
-441.897304 218.004699 -32.669103
-309.701002 85.914635 -12.960298
-369.329420 313.564656 -27.928133
-449.642348 131.618550 -34.091702
-379.033294 176.439840 -27.586810
-460.519181 271.794051 -2.382811
-344.903186 244.376808 -19.752083
-374.615973 215.305416 -28.802530
-365.889975 217.931517 -8.591707
-298.835919 162.111472 -13.327424
-337.566695 93.428530 -31.628340
-514.150238 274.220354 -6.656641
-373.167858 179.829131 -17.600104
-401.763365 293.567993 -5.937048
-458.055185 218.226814 -26.544158
-389.341258 90.280953 -8.387919
-262.055553 329.769329 -18.491614
-325.459160 302.779539 -8.267721
-338.350809 308.850139 -31.855106
-249.953037 250.337497 -20.271396
-270.578707 79.051604 -18.108982
-350.428088 315.896468 -9.050389
-260.146116 250.585312 -25.815525
-488.886681 120.040534 -31.994810
-369.305532 84.215350 -14.528078
-485.648015 209.011837 -28.417682
-431.195440 246.046652 -36.014679
-375.648286 147.056062 -26.758415
-325.335871 157.513182 -7.555568
-464.752885 211.734818 -29.549736
-453.330057 218.525900 -5.365855
-309.022232 171.562754 -13.939191
-329.370984 302.948863 -32.903405
-255.954030 155.796676 -22.210468
-476.831389 209.865839 -22.571783
-299.331826 315.592804 -11.455277
-400.699548 110.315954 -6.484556
-354.747854 175.567279 -10.470290
-261.455374 332.581022 -17.537287
-279.463352 79.504445 -23.378118
-318.379579 90.583953 -10.921523
-392.843203 95.207424 -7.659205
-309.789205 90.476121 -12.648418
-502.239865 192.645929 -17.082058
-299.751067 328.791528 -25.217203
-295.297724 252.977856 -14.990761
-248.246021 232.953323 -18.201956
-301.265995 330.902775 -24.368119
-480.164019 112.988563 -11.215133
-311.656110 312.022461 -30.023615
-500.356445 207.309683 -37.753358
-296.269892 173.221498 -23.051599
-383.609342 180.546007 -10.592753
-307.681554 96.017084 -18.945712
-434.602240 229.636717 -34.268856
-343.095275 96.223889 -7.948203
-444.533586 294.859632 -35.287583
-363.120203 173.471397 -26.309959
-475.090708 179.229524 -5.640875
-258.689557 236.784197 -13.591813
-499.341146 122.070883 -26.510600
-363.265766 114.004059 -24.287737
-432.265294 295.250752 -35.603331
-281.732370 323.987175 -27.218482
-334.275511 92.737349 -8.428878
-346.523772 223.930727 -7.994927
-275.667371 86.340474 -16.599943
-318.889063 224.873888 -10.039186
-254.015000 157.755343 -20.788300
-431.733178 179.718899 -7.711450
-329.056332 149.867757 -31.180513
-401.970824 98.898391 -12.922276
-501.537336 279.054178 -13.069582
-270.344017 160.926813 -25.836743
-403.616408 101.795915 -33.265562
-365.231133 177.899342 -17.052060
-365.270251 283.140719 -11.623296
-451.027198 212.918853 -11.121651
-270.397100 160.709761 -25.833900
-330.266356 248.409672 -30.710686
-414.373587 109.973711 -35.684188
-345.453391 306.473744 -7.047281
-258.865127 231.056434 -25.005016
-401.785866 179.450223 -9.005533
-369.782783 216.048665 -29.945050
-292.169848 164.111437 -27.936204
-415.503242 226.750805 -5.866959
-285.568467 78.704578 -14.910151
-251.481621 245.045691 -22.123303
-428.553104 181.772303 -28.544940
-371.067391 86.047828 -10.384489
-244.315599 243.975032 -16.266428
-373.683776 148.011853 -23.999978
-502.177563 194.064127 -18.323494
-514.483446 208.868392 -36.011654
-333.128704 173.218215 -10.536067
-354.229502 175.762212 -24.606203
-265.887523 310.989118 -17.560363
-458.778637 172.335723 -35.390791
-268.435106 75.296583 -20.743838
-365.521938 284.740800 -32.077588
-247.042333 239.331182 -19.508555
-279.855064 85.215792 -24.856475
-487.529194 185.089160 -22.559734
-314.743659 162.984118 -31.144693
-324.819255 150.050839 -9.263218
-321.912151 94.742637 -9.254658
-253.984480 328.009553 -22.222338
-446.364221 229.691803 -36.985931
-441.810557 239.619404 -2.924649
-316.794499 87.429546 -11.426392
-319.733205 158.615368 -32.850039
-435.332522 182.859086 -27.477016
-497.856964 227.033419 -36.842351
-315.043235 231.512477 -31.778771
-409.031521 170.044910 -6.215162
-352.826921 175.098628 -18.630100
-279.520892 86.107246 -15.925985
-409.012161 176.330663 -7.256389
-484.133578 118.325804 -32.106992
-323.757208 303.507839 -31.538791
-326.521619 223.273179 -12.322655
-431.178402 219.940135 -35.667250
-462.440027 217.932947 -5.616687
-352.447640 85.001856 -14.518609
-357.373071 92.909329 -7.251702
-299.109983 166.659930 -14.408684
-436.170374 236.403357 -35.026156
-302.221516 149.022962 -11.408525
-431.175111 271.759598 -37.567475
-351.045552 295.983869 -6.805475
-438.153275 290.091066 -35.920013
-401.711692 92.191070 -8.168903
-343.986624 287.699747 -24.255195
-325.170661 92.839179 -9.333524
-433.018682 170.439379 -3.582439
-336.820376 304.975622 -32.696555
-307.405509 226.415311 -10.091896
-477.445581 212.922343 -19.286200
-447.942781 284.053543 -37.298553
-311.547344 166.442678 -8.936222
-443.807349 172.489685 -2.950080
-288.388125 311.090730 -27.429748
-346.493796 316.817438 -30.453096
-262.357542 248.579963 -25.477903
-459.812410 212.173370 -29.643189
-338.684236 318.236937 -30.289844
-447.272138 182.090060 -29.751892
-351.085829 217.246225 -9.568965
-276.108432 328.351046 -25.508261
-285.521654 331.102294 -22.435608
-369.737588 313.719945 -27.640412
-380.860508 87.311717 -29.890919
-394.955855 95.470382 -12.808440
-286.820016 76.000718 -15.374417
-392.931870 148.677223 -9.483974
-318.522126 95.664769 -9.435188
-367.367075 279.756596 -10.081438
-240.112435 240.278562 -20.195247
</DataArray>
</Points>
<PointData>
<DataArray NumberOfComponents='1' type='Int32' Name='ParticleType' format='ascii'>
1
1
1
1
1
1
1
1
1
1
1
1
1
1
1
1
1
1
1
1
1
1
1
1
1
1
1
1
1
1
1
1
1
1
1
1
1
1
1
1
1
1
1
1
1
1
1
1
1
1
1
1
1
1
1
1
1
1
1
1
1
1
1
1
1
1
1
1
1
1
1
1
1
1
1
1
1
1
1
1
1
1
1
1
1
1
1
1
1
1
1
1
1
1
1
1
1
1
1
1
1
1
1
1
1
1
1
1
1
1
1
1
1
1
1
1
1
1
1
1
1
1
1
1
1
1
1
1
1
1
1
1
1
1
1
1
1
1
1
1
1
1
1
1
1
1
1
1
1
1
1
1
1
1
1
1
1
1
1
1
1
1
1
1
1
1
1
1
1
1
1
1
1
1
1
1
1
1
1
1
1
1
1
1
1
1
1
1
1
1
1
1
1
1
1
1
1
1
1
1
1
1
1
1
1
1
1
1
1
1
1
1
1
1
1
1
1
1
1
1
1
1
1
1
1
1
1
1
1
1
1
1
1
1
1
1
1
1
1
1
1
1
1
1
1
1
1
1
1
1
1
1
1
1
1
1
1
1
1
1
1
1
1
1
1
1
1
1
1
1
1
1
1
1
1
1
1
1
1
1
1
1
1
1
1
1
1
1
1
1
1
1
1
1
1
1
1
1
1
1
1
1
1
1
1
1
1
1
1
1
1
1
1
1
1
1
1
1
1
1
1
1
1
1
1
1
1
1
1
1
1
1
1
1
1
1
1
1
1
1
1
1
1
1
1
1
1
1
1
1
1
1
1
1
1
1
1
1
1
1
1
1
1
1
1
1
1
1
1
1
1
1
1
1
1
1
1
1
1
1
1
1
1
1
1
1
1
1
1
1
1
1
1
1
1
1
1
1
1
1
1
1
1
1
1
1
1
1
1
1
1
1
1
1
1
1
1
1
1
1
1
1
1
1
1
1
1
1
1
1
1
1
1
1
1
1
1
1
1
1
1
1
1
1
1
1
1
1
1
1
1
1
1
1
1
1
1
1
1
1
1
1
1
1
1
1
1
1
1
1
1
1
1
1
1
1
1
1
1
1
1
1
1
1
1
1
1
1
1
1
1
1
1
1
1
1
1
1
1
1
</DataArray>
<DataArray NumberOfComponents='1' type='Int32' Name='ParticleID' format='ascii'>
0
1
2
3
4
5
6
7
8
9
10
11
12
13
14
15
16
17
18
19
20
21
22
23
24
25
26
27
28
29
30
31
32
33
34
35
36
37
38
39
40
41
42
43
44
45
46
47
48
49
50
51
52
53
54
55
56
57
58
59
60
61
62
63
64
65
66
67
68
69
70
71
72
73
74
75
76
77
78
79
80
81
82
83
84
85
86
87
88
89
90
91
92
93
94
95
96
97
98
99
100
101
102
103
104
105
106
107
108
109
110
111
112
113
114
115
116
117
118
119
120
121
122
123
124
125
126
127
128
129
130
131
132
133
134
135
136
137
138
139
140
141
142
143
144
145
146
147
148
149
150
151
152
153
154
155
156
157
158
159
160
161
162
163
164
165
166
167
168
169
170
171
172
173
174
175
176
177
178
179
180
181
182
183
184
185
186
187
188
189
190
191
192
193
194
195
196
197
198
199
200
201
202
203
204
205
206
207
208
209
210
211
212
213
214
215
216
217
218
219
220
221
222
223
224
225
226
227
228
229
230
231
232
233
234
235
236
237
238
239
240
241
242
243
244
245
246
247
248
249
250
251
252
253
254
255
256
257
258
259
260
261
262
263
264
265
266
267
268
269
270
271
272
273
274
275
276
277
278
279
280
281
282
283
284
285
286
287
288
289
290
291
292
293
294
295
296
297
298
299
300
301
302
303
304
305
306
307
308
309
310
311
312
313
314
315
316
317
318
319
320
321
322
323
324
325
326
327
328
329
330
331
332
333
334
335
336
337
338
339
340
341
342
343
344
345
346
347
348
349
350
351
352
353
354
355
356
357
358
359
360
361
362
363
364
365
366
367
368
369
370
371
372
373
374
375
376
377
378
379
380
381
382
383
384
385
386
387
388
389
390
391
392
393
394
395
396
397
398
399
400
401
402
403
404
405
406
407
408
409
410
411
412
413
414
415
416
417
418
419
420
421
422
423
424
425
426
427
428
429
430
431
432
433
434
435
436
437
438
439
440
441
442
443
444
445
446
447
448
449
450
451
452
453
454
455
456
457
458
459
460
461
462
463
464
465
466
467
468
469
470
471
472
473
474
475
476
477
478
479
480
481
482
483
484
485
486
487
488
489
490
491
492
493
494
495
496
497
498
499
</DataArray>
<DataArray NumberOfComponents='1' type='Int8' Name='IsActive' format='ascii'>
1
1
1
1
1
1
1
1
1
1
1
1
1
1
1
1
1
1
1
1
1
1
1
1
1
1
1
1
1
1
1
1
1
1
1
1
1
1
1
1
1
1
1
1
1
1
1
1
1
1
1
1
1
1
1
1
1
1
1
1
1
1
1
1
1
1
1
1
1
1
1
1
1
1
1
1
1
1
1
1
1
1
1
1
1
1
1
1
1
1
1
1
1
1
1
1
1
1
1
1
1
1
1
1
1
1
1
1
1
1
1
1
1
1
1
1
1
1
1
1
1
1
1
1
1
1
1
1
1
1
1
1
1
1
1
1
1
1
1
1
1
1
1
1
1
1
1
1
1
1
1
1
1
1
1
1
1
1
1
1
1
1
1
1
1
1
1
1
1
1
1
1
1
1
1
1
1
1
1
1
1
1
1
1
1
1
1
1
1
1
1
1
1
1
1
1
1
1
1
1
1
1
1
1
1
1
1
1
1
1
1
1
1
1
1
1
1
1
1
1
1
1
1
1
1
1
1
1
1
1
1
1
1
1
1
1
1
1
1
1
1
1
1
1
1
1
1
1
1
1
1
1
1
1
1
1
1
1
1
1
1
1
1
1
1
1
1
1
1
1
1
1
1
1
1
1
1
1
1
1
1
1
1
1
1
1
1
1
1
1
1
1
1
1
1
1
1
1
1
1
1
1
1
1
1
1
1
1
1
1
1
1
1
1
1
1
1
1
1
1
1
1
1
1
1
1
1
1
1
1
1
1
1
1
1
1
1
1
1
1
1
1
1
1
1
1
1
1
1
1
1
1
1
1
1
1
1
1
1
1
1
1
1
1
1
1
1
1
1
1
1
1
1
1
1
1
1
1
1
1
1
1
1
1
1
1
1
1
1
1
1
1
1
1
1
1
1
1
1
1
1
1
1
1
1
1
1
1
1
1
1
1
1
1
1
1
1
1
1
1
1
1
1
1
1
1
1
1
1
1
1
1
1
1
1
1
1
1
1
1
1
1
1
1
1
1
1
1
1
1
1
1
1
1
1
1
1
1
1
1
1
1
1
1
1
1
1
1
1
1
1
1
1
1
1
1
1
1
1
1
1
1
1
1
1
1
1
1
1
1
1
1
1
1
1
1
1
1
1
1
</DataArray>
<DataArray NumberOfComponents='1' type='Int32' Name='ParticleTetID' format='ascii'>
11612
9335
7921
9239
8397
12764
15060
11955
11612
16436
3433
7808
3440
1388
3045
15540
941
17756
21727
17325
13326
18938
17236
9890
15541
13257
22168
942
21311
975
15648
3600
9833
4811
7927
12965
13368
17739
12972
14288
2291
13212
23183
2462
14481
4858
18953
13254
12681
4811
12264
595
11150
161
11701
21
20737
10850
12015
11328
23183
14748
6143
813
1454
14956
1076
15542
671
18638
10914
10851
9837
12268
595
9967
4820
4819
21534
9438
19477
18926
17760
8559
8471
15374
5585
11150
20657
11856
13191
15543
14480
3433
11153
3152
22158
13936
9192
9167
1688
9796
5734
3810
3698
14980
12250
13329
2006
549
17740
2273
1712
1073
3045
1453
9531
14746
7922
3918
4409
23563
12678
18837
4811
1725
6056
815
7210
1489
1928
9146
15144
18834
7140
1687
7131
817
6149
14654
9441
1453
31
21950
13254
9887
11511
8465
2749
6979
670
4055
17306
8396
9893
10570
11328
5756
3438
3908
21189
7907
8651
10361
20827
4811
8645
9443
11328
8322
7927
6026
13255
163
26
4811
10690
10773
14979
18621
18928
4063
255
60
4404
17524
17762
7910
3805
12710
5735
13460
17306
20172
198
15060
18855
11508
8736
1489
13259
8436
22947
1688
11327
18855
5239
6035
17324
22016
21535
18925
16495
12015
1489
17309
13164
4820
5008
4409
8396
5756
23541
7461
18620
8323
10776
4859
7587
7133
8834
10386
9969
6848
2452
4125
13167
13279
3391
57
18951
6087
32
11145
13257
11426
2696
9888
1135
21023
815
15648
9908
9839
12014
3366
15437
10580
12399
11037
9530
7112
17739
17234
15145
17736
12868
19217
2748
12709
15148
12779
19541
1066
21413
3808
30
11855
12015
13350
15148
15148
1489
12681
23
12777
554
11054
8652
13945
4053
21408
18620
2270
20375
1454
17324
6134
12879
21800
11416
4907
12603
18620
3387
1687
11153
7983
5253
17760
1686
21813
7984
8558
17322
12548
2750
20072
12015
21192
1453
14980
12974
6143
21184
15648
5347
4153
13329
23
4844
22142
4370
18894
7127
18894
13279
6097
1387
13259
8463
3451
544
7986
14109
16160
1188
7226
5286
3389
940
1489
10567
1070
1783
22168
8321
12680
16493
67
13257
17324
9885
17236
9733
7584
10940
16451
6618
2739
5774
22160
9330
67
17309
9155
15773
1135
13161
12680
17739
670
4179
545
2276
18748
8466
14480
9911
7799
15780
21813
7353
16150
6470
3473
1479
12039
28
10028
21534
7570
10919
3957
16878
1479
12963
17738
2687
21951
3801
9212
4180
7925
20206
2462
25
5729
11417
20206
7214
15766
183
21538
2597
2372
5016
23042
18636
13257
3812
4359
18618
11260
2276
16791
11865
13167
11887
18341
17325
5738
15650
17740
10845
1687
9201
671
12015
7127
10388
670
2749
3810
21436
1453
415
13166
17736
2595
9733
16502
10769
3921
22160
11328
4143
942
3471
6843
20447
905
3957
2451
6041
671
20071
193
815
9152
2140
940
4772
13872
8040
17236
22171
9842
11390
12873
17524
16877
7986
4370
4180
20654
6125
8373
5729
15651
</DataArray>
<DataArray NumberOfComponents='3' type='Float32' Name='vels' format='ascii'>
0.885646 -0.058975 0.001439
2.959734 -0.107668 0.005501
0.227243 0.065466 -0.000759
0.037123 0.005997 -0.001023
1.802619 0.260412 0.003205
0.764445 -0.176410 0.001322
3.164151 -0.285802 -0.001214
1.709042 0.311881 -0.001387
0.393106 -0.031080 -0.001868
0.514666 0.037145 0.003362
3.180261 -0.332317 0.003746
0.089745 -0.026167 0.001701
1.670822 -0.163163 0.011281
1.304989 0.336007 0.004536
2.578567 0.240434 -0.002983
3.262971 0.712758 -0.000263
2.977649 -0.213045 -0.012029
3.362882 0.778361 -0.001011
0.116675 0.123920 0.008806
3.143205 -0.687911 -0.000248
3.161615 -0.296917 0.000030
1.682445 -0.805141 0.001887
3.100980 0.334032 0.000150
2.297103 0.647560 0.018280
3.318006 0.738524 -0.000916
3.344010 0.337726 -0.000479
2.280851 0.017976 0.004624
3.372045 -0.190401 -0.009651
1.304717 0.724858 -0.003440
2.499362 0.585117 0.002810
3.252357 0.242881 -0.001860
1.004583 0.036119 0.000111
2.731775 0.719607 -0.005459
2.782951 0.164947 -0.001559
0.102706 0.029947 -0.000374
3.443074 0.162184 -0.013299
3.146205 -0.284338 -0.000950
3.052162 -0.632814 -0.000544
3.137453 0.156441 0.000940
2.892129 -0.670840 0.000522
2.592480 -0.534019 -0.010237
1.762031 0.371953 0.002693
1.318059 0.039785 -0.001037
0.079740 -0.022634 0.000454
3.365019 0.225272 -0.000668
0.776858 0.032197 0.004111
1.640856 -0.790284 -0.005212
3.158023 0.289301 -0.000318
3.243915 0.789932 -0.000652
2.666866 0.180579 -0.000872
3.089348 0.647254 -0.000704
1.938039 -0.324507 -0.002578
3.459655 -0.147356 -0.001732
0.234729 0.099403 0.000182
0.251648 -0.148506 0.055585
2.133319 -0.060902 -0.001482
0.720863 0.369621 0.000528
0.007410 0.000099 0.002476
3.346825 0.784838 -0.000593
3.158010 -0.817219 -0.003972
0.217054 0.012476 0.000436
3.098480 0.627031 -0.002764
0.309776 0.114351 -0.012100
2.917328 0.150145 -0.003871
3.360049 0.347982 -0.001697
1.066828 0.017779 -0.000465
0.122621 0.000072 0.001018
3.300910 0.748496 -0.001844
2.775100 -0.627079 0.002072
3.006620 -0.639329 -0.000281
1.834756 -0.329527 -0.002156
0.755764 -0.036368 0.009405
3.120779 0.834858 -0.001976
2.978248 0.598425 -0.000161
2.281643 -0.356273 -0.000134
2.958515 -0.432733 -0.002532
2.841054 0.202087 -0.001577
2.281842 0.189491 -0.000564
3.336727 0.243641 -0.001196
3.305896 0.149546 0.002097
0.076359 0.024511 0.003014
2.986519 0.125211 -0.003092
3.047877 0.710266 -0.000508
2.987164 -0.585520 -0.003590
0.369513 0.063647 0.000785
1.989354 0.197542 0.004425
2.840554 0.777169 0.006174
3.576783 -0.149847 -0.007031
3.144725 -0.742315 -0.000190
3.032038 -0.285654 -0.000916
2.327778 0.034853 -0.002373
3.387928 0.740684 -0.000056
3.276465 0.192952 -0.000074
3.406741 -0.342290 0.002515
2.870442 -0.084560 0.003630
1.102492 0.055711 -0.001274
0.797219 0.010673 -0.000175
3.096221 0.401188 0.003513
2.716017 0.550363 -0.002713
2.860868 -0.572267 -0.004782
3.051913 -0.318136 -0.007209
2.372708 0.631631 -0.002366
1.926031 0.341007 0.004315
0.014013 -0.000060 0.001942
-0.004409 0.002747 -0.007690
2.937531 0.327964 -0.001181
1.250263 0.026223 -0.010920
3.186657 -0.327865 -0.000415
0.065060 0.011275 -0.002250
3.329606 -0.821222 0.000947
2.778433 -0.566962 0.000068
0.000459 0.001314 0.001647
1.233757 0.472895 0.010064
0.290052 -0.000579 0.001290
2.645963 0.253677 -0.003914
2.572544 0.222324 -0.000444
3.089336 0.120994 0.006317
2.654667 0.514657 -0.004176
0.008932 0.002619 -0.001678
1.385247 -0.032758 -0.016426
0.062085 0.001295 -0.001922
0.583392 0.076420 -0.000380
3.184827 0.771319 -0.000405
3.145820 -0.732559 -0.000938
2.737214 0.179470 -0.002935
1.943457 0.771746 0.002242
0.107828 -0.017254 -0.000092
2.759488 0.191478 -0.001977
2.823396 0.379954 0.000350
2.577788 -0.535968 0.000209
0.438075 -0.526560 0.026182
0.009443 0.000034 -0.000680
3.118343 0.666229 -0.000615
3.056302 -0.710343 -0.001332
3.882312 -0.043550 0.001292
2.593982 -0.207927 -0.003528
3.036228 -0.022470 0.002656
3.852771 0.341645 0.001166
3.063091 0.821565 0.030559
0.544966 0.035578 -0.002443
3.142383 0.106331 0.001569
2.548024 0.251316 -0.000567
1.004071 -0.009943 0.005996
3.312412 -0.262580 -0.002124
3.055897 0.325063 -0.001046
2.819892 0.759232 -0.005526
3.263039 -0.820772 -0.003034
2.936676 0.348676 -0.001205
3.027788 -0.186450 0.005123
2.827733 -0.288219 -0.000302
2.837910 -0.581802 -0.009197
3.146069 0.776552 0.001483
3.132055 -0.258364 -0.001356
2.674197 0.350090 -0.001841
3.781778 0.987239 -0.024595
0.012363 0.003622 0.000149
2.934442 -0.777359 0.000652
0.010838 -0.000013 0.000819
0.871488 -0.006846 0.002018
0.026200 -0.000218 0.005357
3.183613 0.230371 0.000116
0.024060 0.006968 -0.000666
2.936213 0.553431 -0.000140
0.003612 0.000622 0.000118
0.985497 -0.609388 0.010790
3.011952 0.170584 -0.000100
2.395838 0.454272 -0.003007
3.444893 0.148318 -0.002010
3.183099 -0.826587 0.000783
0.440666 -0.128564 -0.011545
0.246259 0.071364 0.001017
1.949773 -0.376010 0.011810
3.024245 0.357984 -0.002169
1.741102 -0.224510 0.000360
2.941150 -0.076371 -0.001199
2.494096 0.138572 -0.000071
-0.005657 0.004849 0.000152
2.148658 0.048395 0.002618
3.093323 0.249581 -0.001252
3.289382 0.323612 -0.000458
3.117848 0.161966 0.000241
3.020639 0.644439 0.000183
2.922101 -0.163722 -0.007384
3.407370 0.853218 -0.004893
2.498746 -0.783203 -0.011561
3.120671 0.725656 -0.000209
2.900466 0.722794 -0.000248
0.007701 0.002252 -0.000448
0.094330 -0.000351 -0.000671
0.973248 -0.298664 0.011113
0.019781 0.003248 0.000783
1.885558 -0.039094 0.005502
2.989482 -0.308815 -0.000390
3.278621 0.249625 0.000560
1.026394 0.305788 0.000036
3.071551 -0.303299 0.000192
3.291439 -0.293517 -0.000465
2.042651 -0.559722 0.000004
2.673618 -0.353472 0.003639
2.654210 -0.543260 0.000430
3.009844 0.335713 0.000198
1.973748 0.270987 0.005233
1.955413 0.816670 0.003767
2.606613 -0.273551 -0.004921
2.549320 -0.670292 -0.004728
3.228691 -0.295818 -0.000560
1.388497 -0.776503 0.014742
0.032127 0.005338 -0.000872
3.085687 -0.693391 -0.001449