<VTKFile type='UnstructuredGrid' version='1.0' byte_order='LittleEndian' header_type='UInt64'>
<UnstructuredGrid>
<Piece NumberOfCells='500' NumberOfPoints='500'>
<Points>
<DataArray NumberOfComponents='3' type='Float32' Name='Position' format='ascii'>
473.896823 217.796417 -4.372413
1029.059357 188.209033 -16.808274
-257.956192 345.673378 -6.039543
498.032435 253.326721 -6.476058
1029.278797 232.304881 -20.074967
-217.644395 123.566919 -2.078544
1029.253611 152.748402 -21.930599
644.980100 254.489169 -5.713858
458.019433 229.427576 -3.223731
-148.591147 277.559752 -5.065710
1029.136333 154.676584 -29.201451
4.825121 52.197526 -30.386219
-198.636489 222.631485 -6.073864
316.396495 91.543182 -3.889399
551.611166 200.559080 -5.050552
837.287570 299.183990 -15.216007
794.511980 175.067178 -6.659100
1029.087137 262.783777 -11.868301
-203.668117 309.130706 -6.714279
1029.193912 138.980634 -19.474711
761.993908 144.303836 -13.166545
89.618698 185.347132 -4.021866
1029.076102 228.539705 -26.569211
460.843088 396.362233 -4.060298
1029.103216 249.678682 -17.080837
1028.990499 208.533237 -16.447437
504.953858 128.677039 -17.529664
1029.136178 186.426719 -8.694585
0.371448 295.241549 -37.516058
484.509464 376.145221 -6.862453
584.876779 215.232650 -12.198400
71.793941 207.301088 -2.643613
737.807179 335.998859 -8.759879
849.824519 218.009553 -9.695652
333.566062 370.773135 -20.262240
665.064959 186.754764 -7.807248
1029.074164 155.183680 -27.112406
1029.321351 153.281068 -16.377951
440.248551 73.621292 -29.822711
1028.982668 142.206514 -26.628187
622.508001 37.732868 -6.251757
481.667251 59.276580 -2.935451
-0.007568 183.978697 -37.083213
703.072489 60.457216 -29.991865
623.779667 214.680424 -17.631701
-288.848935 218.081887 -37.629109
-0.354130 119.830927 -35.180164
715.908828 216.675651 -9.025551
926.726742 281.479597 -22.454514
610.680310 188.894436 -7.098846
1029.096555 251.048780 -9.627166
507.207590 248.763356 -5.776543
1029.044092 190.888146 -17.070591
9.685446 295.166732 -37.301031
-491.819501 186.656353 -1.973936
1022.741131 184.122868 -8.265803
292.665297 293.360893 -5.476691
-336.483781 182.764049 -31.740336
1029.281029 251.617953 -16.541149
570.153690 6.162032 -11.491153
-0.263953 175.731599 -33.961933
1029.144067 251.298274 -9.433218
374.822411 387.757959 -7.797393
720.988326 183.459918 -10.691236
1017.193325 208.961853 -28.364567
-0.015373 260.667816 -37.415558
500.007086 101.613972 -36.641525
1029.003818 260.121252 -19.353480
1029.219105 141.565174 -7.227381
1029.030335 140.847806 -10.327024
1029.210581 151.177371 -10.058554
-360.960072 183.422615 -34.959257
422.743582 386.163063 -3.664093
1029.370072 249.889205 -17.917543
292.259848 221.210236 -3.104886
565.095795 200.928050 -29.037937
712.378112 216.688912 -28.773914
1029.088630 226.583231 -26.791639
586.373893 191.572141 -8.224482
622.454575 181.814253 -13.345081
314.528937 65.363070 -7.050339
1029.075219 199.084609 -13.594524
1029.306689 250.607125 -21.757990
1029.275264 140.263570 -17.033113
1029.110714 228.986199 -22.802082
316.820548 90.254571 -3.601600
708.910361 347.820117 -10.696496
1029.150350 191.275146 -16.086105
1029.304192 140.303527 -20.675616
1029.296586 152.742705 -21.728450
2.529017 235.398304 -35.344964
1029.317875 251.504023 -16.457303
1029.142010 196.584875 -14.344229
1029.292726 155.217574 -29.018318
1029.213633 188.409014 -16.858498
129.853112 196.774392 -2.675799
-25.331070 223.030272 -2.511401
598.709135 262.220999 -6.177105
1029.337316 249.376128 -23.538960
1029.006290 140.497051 -6.606818
1029.101994 154.322595 -29.456101
-109.427468 385.908385 -12.173717
860.457823 240.421955 -20.987654
-432.452521 176.913409 -26.661209
-389.821679 245.824149 -19.995910
1029.244989 230.300666 -9.687840
518.953993 157.381952 -20.512500
1029.318341 165.992030 -17.959244
-324.033791 255.496913 -19.815014
1028.977543 140.299234 -17.001177
1029.189046 140.141349 -19.420439
-501.952443 192.293460 -9.712253
108.019565 252.050829 -3.249536
1029.088515 191.145182 -20.070877
961.838098 227.236512 -7.614250
1029.162892 231.219450 -28.952026
352.807621 80.042582 -26.333643
1029.069190 250.884586 -9.429735
-251.595952 350.104859 -5.532630
638.594759 169.148647 -22.297870
-13.580028 53.084395 -35.905994
608.629620 156.432400 -4.904194
1029.203531 259.133438 -14.979347
1029.386622 140.349597 -17.517165
654.787292 215.204780 -8.884915
72.997942 285.149608 -33.941459
377.639320 41.467018 -2.348081
589.202052 213.557387 -7.092844
1029.257480 229.715106 -21.899225
1029.221177 141.549552 -28.168380
-60.119611 80.383875 -4.834821
-254.748542 213.897109 -5.256793
1029.184340 250.622315 -9.354484
1029.115912 138.104862 -11.754595
1029.020587 188.147850 -23.823336
1029.259073 166.069571 -28.080659
872.999104 178.179111 -8.108764
787.618316 219.296787 -17.577036
422.237684 386.356569 -3.913509
-258.014216 212.316996 -3.738148
959.887482 184.408770 -20.192877
1029.216848 231.067388 -27.441933
500.037291 99.488191 -36.490798
1029.134359 189.002731 -8.993922
1028.982673 228.031097 -11.093356
534.043165 362.289010 -6.556753
565.454782 8.122455 -20.012082
1029.064718 230.128527 -9.890916
1029.261154 171.158954 -29.184869
381.472231 52.266270 -10.001146
1029.152980 136.636137 -10.985803
586.540652 345.939090 -6.212035
1029.072949 189.720784 -13.672791
1029.126679 229.823613 -11.368067
1029.116635 266.379400 -22.171789
-1.637716 330.999306 -13.254280
1029.194718 140.926378 -10.790143
-199.321552 180.337493 -31.802087
61.480754 226.018652 -2.912435
-16.020277 223.167421 -5.666863
676.751341 220.613753 -12.376688
-51.790922 370.645992 -13.368744
1029.165082 249.277036 -18.436584
602.877517 259.062386 -17.315714
472.546833 50.881647 -2.660223
792.608926 215.938792 -13.688133
1029.162656 250.509853 -9.214404
315.808809 182.375611 -26.153128
500.079478 3.824197 -13.147955
513.338215 9.732030 -12.373130
-156.831729 377.771787 -18.999382
1028.993105 141.600352 -27.791848
1029.312762 229.305865 -15.668280
554.846757 214.214703 -4.511333
1029.207264 189.143456 -11.935037
738.395793 179.544028 -12.396566
-521.929699 274.721232 -37.146195
852.905767 178.066145 -19.452582
715.729782 187.055736 -9.596615
1029.259166 229.986926 -17.220021
951.211994 184.282073 -27.461738
856.440111 297.685698 -25.343878
966.285901 175.014696 -7.929152
979.233346 272.526125 -9.997616
90.097116 179.283645 -26.281153
1029.196213 265.861447 -23.563606
1029.060599 250.741090 -23.158830
334.200492 368.826704 -16.205982
-256.430618 175.905233 -19.924681
-244.115239 297.320808 -3.421992
665.137533 257.424992 -21.364198
1029.139103 188.001014 -24.091368
852.243797 155.474656 -12.323196
634.450550 214.491782 -28.436542
87.818105 268.372937 -2.743150
1029.246652 152.097065 -21.274371
1029.238727 166.185289 -18.220476
553.578812 6.159832 -12.204669
1029.317852 166.310171 -11.196974
1029.074538 141.753036 -28.112455
1028.978325 226.681346 -19.098767
1029.070636 229.001683 -26.946571
101.050692 259.564608 -34.962612
834.098422 105.931093 -26.479220
551.902628 8.198461 -7.508102
1029.134247 165.425647 -17.916420
69.594023 191.498510 -4.634911
856.865643 294.330079 -10.096937
1029.191202 138.906774 -12.100933
-233.482074 180.743689 -2.596606
692.924865 214.059416 -15.868912
1028.987540 207.207378 -15.083185
865.732759 289.491852 -18.904107
1029.083419 261.565138 -18.628778
1029.186294 141.644426 -26.875536
1029.125480 163.915666 -20.865933
1029.067550 187.903334 -11.437351
616.480672 214.548321 -28.307001
1028.977323 191.701105 -10.560304
-56.068823 21.060264 -34.448913
1029.130325 227.908705 -11.363294
18.048292 218.635501 -29.211174
-55.179303 77.929318 -34.208613
1028.994581 191.539402 -20.807746
1029.089074 228.582486 -11.134421
1029.032689 139.337093 -11.491075
701.333710 180.056334 -26.131294
288.333966 206.117588 -35.894655
565.883154 8.089472 -20.044269
835.248902 175.637084 -8.001650
1029.058995 154.448558 -27.720059
302.134587 247.276624 -3.366946
298.852292 220.754689 -36.103867
1029.130825 162.909080 -15.085360
884.018087 99.562700 -9.458853
218.521371 263.543278 -6.268130
1029.138655 191.579951 -20.417899
505.363528 208.141961 -25.632697
530.759440 187.066741 -19.908465
704.945358 346.321943 -9.657413
114.680572 176.537185 -34.752059
662.498331 184.963708 -7.340764
1029.114565 185.116480 -26.917102
1029.027159 188.449629 -8.741109
1029.088616 227.990706 -18.525192
321.606830 106.331452 -29.501020
597.397142 190.587305 -30.013805
610.859846 363.324040 -8.269197
627.968069 39.700475 -6.599405
-5.414872 153.524531 -34.195849
785.620625 217.881566 -8.100604
934.545755 217.883772 -16.928292
1029.000713 266.680231 -14.841078
1029.019230 264.554280 -17.341043
1029.020443 260.195748 -17.082613
232.480851 191.937727 -4.864352
512.010651 145.327221 -24.007654
-177.965998 374.130033 -30.908118
-92.816787 324.671166 -36.971974
548.191053 193.953288 -6.349145
318.458956 188.706147 -18.081392
305.170471 223.641845 -3.492035
1028.992364 140.724015 -18.226469
794.522825 189.763279 -14.489199
1029.288175 250.532170 -11.240318
1028.982169 140.578835 -8.523235
-0.016071 205.836809 -36.819992
-498.931152 188.849792 -24.851698
1028.991480 184.793799 -26.995024
-183.974073 276.386330 -4.189820
1029.263509 251.378450 -21.648380
-405.732795 126.073586 -35.835716
1029.055936 181.494904 -18.997324
303.955554 199.403748 -12.782075
1029.168282 189.604127 -16.148881
-191.865500 174.866357 -26.150011
1029.060040 188.469406 -26.483053
820.770019 153.130645 -19.768257
1029.062033 251.332961 -17.754174
702.702795 220.243380 -19.048597
1029.058731 251.612451 -21.507725
1029.209896 251.530546 -18.765869
1029.226357 141.141672 -26.962504
1029.035831 258.818714 -21.723534
863.689932 178.903019 -7.545782
-80.452478 108.636631 -34.130431
1028.992617 143.275617 -33.765066
76.600542 300.958222 -4.306688
1029.052570 231.238678 -23.593649
302.999581 259.576108 -31.758090
583.438958 338.778316 -6.253066
1029.019086 186.784368 -8.920433
1029.062089 229.606706 -11.842059
-492.668720 185.882579 -3.383289
-28.805195 51.331654 -33.901090
699.980205 185.755505 -29.486668
1029.055737 139.105929 -11.640209
-129.995016 112.540204 -31.600880
1029.084872 192.212440 -20.238293
-292.416372 211.843659 -4.848735
-157.004268 217.250497 -12.638338
1028.996143 151.715862 -17.273462
862.780822 239.289878 -6.862858
411.591621 245.039275 -3.410562
567.825186 204.157750 -5.822296
1029.256785 153.702561 -22.613375
1029.274629 189.295571 -19.419725
509.073675 371.061333 -15.400181
-48.235752 91.780746 -33.481704
940.557891 269.820162 -23.901734
1029.235200 153.879772 -27.568629
-318.127767 212.106234 -36.644187
116.543481 247.416396 -26.416371
1029.273908 151.732683 -17.452964
1029.014351 139.407205 -11.818104
-222.074293 215.341248 -4.366564
904.092412 176.008850 -32.146117
330.037856 70.677606 -3.753415
1028.980649 249.835231 -21.175183
676.953959 187.107848 -11.272360
1029.188393 230.634547 -28.444128
1029.080799 230.197874 -9.454699
580.424809 214.140215 -31.039676
496.293859 387.016721 -7.318455
133.456928 190.161252 -35.472192
1029.008500 206.564596 -15.792315
333.946635 76.618922 -3.246607
1029.067852 141.603446 -27.818469
1029.069269 165.176413 -18.524279
1029.133526 191.427176 -10.540003
-48.199652 215.593579 -3.028078
-159.984378 174.522582 -5.510498
508.489986 5.537080 -25.503094
1029.220334 140.786220 -22.054353
-5.507063 232.349369 -37.705397
1029.175277 141.288491 -25.554240
335.689409 93.987697 -33.723805
653.789096 262.974357 -34.702604
480.803884 58.543423 -4.915051
1029.228811 229.056026 -21.423484
1029.263211 229.727649 -8.828450
-157.113379 219.890941 -32.255446
1029.255636 140.847097 -10.347196
671.617354 353.124546 -22.165354
-20.548982 108.690697 -34.175850
1029.093018 189.431262 -22.359625
30.166317 302.490940 -2.534308
577.352510 259.049103 -16.870418
329.181114 100.373400 -31.079360
505.995891 150.965739 -11.171147
1029.146176 187.848913 -9.040993
1029.240783 141.515258 -27.379984
-314.983503 331.799517 -5.884164
964.485015 178.587746 -15.505694
250.500969 281.689546 -5.931707
-255.041237 218.761516 -26.204032
446.632252 2.213090 -6.215229
1029.083022 262.773429 -19.497108
863.611200 292.204364 -8.271901
827.074012 317.567486 -26.117454
1029.137774 227.226450 -10.712844
1029.144133 141.824809 -12.094427
619.825021 366.243113 -7.749556
1029.072346 230.843770 -24.585391
1.727568 63.377535 -31.945535
522.463912 5.500579 -11.501669
-6.041468 215.786162 -27.090131
302.008729 255.880634 -35.899857
-207.763371 120.392513 -26.186955
646.862011 122.329944 -6.151639
304.937922 175.844204 -28.739661
-196.337919 220.202139 -5.721140
1029.220458 185.847851 -11.251454
831.929320 301.049578 -23.516317
1029.129728 164.701498 -20.667179
498.209263 116.243544 -19.590232
387.756655 289.169364 -6.626248
705.280537 79.604972 -6.822901
1029.029557 189.622144 -9.059488
1029.097936 262.061277 -16.866182
1029.292222 139.341657 -20.537809
1029.028994 140.404660 -8.938870
471.500244 7.300291 -6.629684
1029.005844 140.255329 -9.204981
-501.339459 193.445943 -16.689596
422.364659 386.234165 -5.736371
1029.087163 227.049554 -11.271518
625.042060 187.543395 -19.211041
684.134347 369.041374 -18.115048
-98.292544 10.470333 -11.599556
810.866762 307.109991 -25.303719
-368.737034 211.845263 -37.945947
1029.146218 191.360374 -20.366622
644.413712 167.407387 -9.123294
1028.984297 152.167014 -15.410153
299.283403 218.275248 -34.323118
966.140748 126.161184 -6.629142
-18.063402 370.208490 -34.707638
1029.217982 189.239624 -24.197824
-220.424567 177.611049 -5.559041
636.656476 214.861944 -9.259028
-310.871219 66.265064 -26.385699
742.196287 86.199476 -20.418670
-3.669715 339.650127 -36.082249
1029.187656 251.079710 -22.841616
1029.318670 140.222168 -7.695200
353.159645 78.293707 -4.974295
1029.189180 152.203793 -9.786901
721.276912 183.445929 -10.610494
1029.020630 165.105675 -19.151886
574.341194 167.986662 -6.956691
1029.190473 154.549839 -27.821762
802.719174 78.186801 -6.908540
-219.800734 360.219187 -12.513962
1028.992859 189.529076 -21.214293
785.450603 79.237740 -28.413998
1029.122687 189.627835 -12.980992
550.442946 259.085180 -8.278106
-49.857468 209.768495 -11.837451
1029.067094 190.358882 -21.601804
1029.149717 228.931587 -26.989552
10.170629 129.275412 -35.707015
373.442254 352.324670 -6.182486
1029.126705 199.221430 -20.196635
716.664233 172.841005 -7.195974
1029.154759 191.002642 -23.581673
1029.118563 166.532241 -28.691753
491.066381 223.315121 -4.561488
1029.114841 139.297521 -11.567960
411.558032 245.110662 -3.276845
910.987730 180.156076 -23.394229
508.927001 5.872255 -10.459863
1029.105731 205.069380 -15.635904
782.589928 92.822564 -19.451861
-501.566046 193.713696 -17.239485
245.306132 200.989461 -36.137288
1029.120078 187.702432 -9.310782
1029.163817 184.148452 -21.974278
1029.312471 248.234907 -9.873754
114.181263 196.761633 -35.488990
1029.328978 136.843542 -18.881703
477.743020 278.279482 -24.192929
1029.222021 229.310936 -11.098716
1029.172426 140.413768 -21.018412
25.536241 219.672115 -21.885686
1029.118423 167.132526 -29.081801
911.073256 155.499807 -7.232737
781.920644 80.362181 -6.615793
1029.236015 251.014534 -17.909152
9.350832 239.170444 -37.042182
287.380241 238.440922 -3.135066
1028.977966 139.590846 -10.513834
1029.013381 155.959542 -27.775785
375.263477 240.252316 -19.345116
1.486034 240.816112 -36.815648
959.315385 219.898148 -29.073599
457.556242 77.709037 -6.355745
1029.122752 191.332256 -15.803695
1029.022018 152.098673 -9.721617
806.888699 171.970758 -8.101524
-102.535422 15.425919 -31.755836
1029.034602 250.235039 -24.035320
699.633987 178.664889 -12.248928
295.916714 203.379639 -35.344617
-236.038815 218.618073 -6.118875
1029.121923 139.486113 -10.572183
641.488501 41.775722 -6.178681
1029.016906 187.725508 -9.274138
327.462429 239.323923 -35.100969
1029.281845 164.317919 -10.568704
0.077814 295.321872 -37.638511
582.054614 334.410684 -6.018444
-0.001564 331.177578 -35.937000
281.885404 33.759771 -10.127720
400.884835 273.474580 -5.355285
1029.080642 139.809185 -8.448109
347.964830 64.514004 -2.983106
802.715300 305.214126 -23.981071
653.241328 215.314608 -8.395740
-180.895553 213.765960 -19.299620
42.359955 311.739465 -37.227568
1029.091622 188.026010 -8.426024
210.890131 185.815422 -3.191741
1029.233175 246.857364 -23.058501
531.017848 384.678395 -26.184851
1029.182799 226.565878 -26.855878
264.926260 202.361029 -28.928148
723.599680 344.440001 -24.091566
490.539261 99.876867 -22.555209
730.033526 173.220766 -6.961015
1029.147602 265.728428 -24.808093
1028.979811 266.614511 -21.884949
475.555293 394.018702 -19.989546
89.755076 178.030661 -26.637313
378.075462 7.721897 -0.963226
1029.072314 141.391280 -11.738849
377.711614 45.409382 -1.636340
795.212757 82.888103 -6.078151
510.922436 295.745437 -7.030359
728.760890 216.073646 -17.434069
</DataArray>
</Points>
<PointData>
<DataArray NumberOfComponents='1' type='Int32' Name='ParticleType' format='ascii'>
1
1
1
1
1
1
1
1
1
1
1
1
1
1
1
1
1
1
1
1
1
1
1
1
1
1
1
1
1
1
1
1
1
1
1
1
1
1
1
1
1
1
1
1
1
1
1
1
1
1
1
1
1
1
1
1
1
1
1
1
1
1
1
1
1
1
1
1
1
1
1
1
1
1
1
1
1
1
1
1
1
1
1
1
1
1
1
1
1
1
1
1
1
1
1
1
1
1
1
1
1
1
1
1
1
1
1
1
1
1
1
1
1
1
1
1
1
1
1
1
1
1
1
1
1
1
1
1
1
1
1
1
1
1
1
1
1
1
1
1
1
1
1
1
1
1
1
1
1
1
1
1
1
1
1
1
1
1
1
1
1
1
1
1
1
1
1
1
1
1
1
1
1
1
1
1
1
1
1
1
1
1
1
1
1
1
1
1
1
1
1
1
1
1
1
1
1
1
1
1
1
1
1
1
1
1
1
1
1
1
1
1
1
1
1
1
1
1
1
1
1
1
1
1
1
1
1
1
1
1
1
1
1
1
1
1
1
1
1
1
1
1
1
1
1
1
1
1
1
1
1
1
1
1
1
1
1
1
1
1
1
1
1
1
1
1
1
1
1
1
1
1
1
1
1
1
1
1
1
1
1
1
1
1
1
1
1
1
1
1
1
1
1
1
1
1
1
1
1
1
1
1
1
1
1
1
1
1
1
1
1
1
1
1
1
1
1
1
1
1
1
1
1
1
1
1
1
1
1
1
1
1
1
1
1
1
1
1
1
1
1
1
1
1
1
1
1
1
1
1
1
1
1
1
1
1
1
1
1
1
1
1
1
1
1
1
1
1
1
1
1
1
1
1
1
1
1
1
1
1
1
1
1
1
1
1
1
1
1
1
1
1
1
1
1
1
1
1
1
1
1
1
1
1
1
1
1
1
1
1
1
1
1
1
1
1
1
1
1
1
1
1
1
1
1
1
1
1
1
1
1
1
1
1
1
1
1
1
1
1
1
1
1
1
1
1
1
1
1
1
1
1
1
1
1
1
1
1
1
1
1
1
1
1
1
1
1
1
1
1
1
1
1
1
1
1
1
1
1
1
1
1
1
1
1
1
1
1
1
1
1
1
1
1
1
1
1
1
1
1
</DataArray>
<DataArray NumberOfComponents='1' type='Int32' Name='ParticleID' format='ascii'>
0
1
2
3
4
5
6
7
8
9
10
11
12
13
14
15
16
17
18
19
20
21
22
23
24
25
26
27
28
29
30
31
32
33
34
35
36
37
38
39
40
41
42
43
44
45
46
47
48
49
50
51
52
53
54
55
56
57
58
59
60
61
62
63
64
65
66
67
68
69
70
71
72
73
74
75
76
77
78
79
80
81
82
83
84
85
86
87
88
89
90
91
92
93
94
95
96
97
98
99
100
101
102
103
104
105
106
107
108
109
110
111
112
113
114
115
116
117
118
119
120
121
122
123
124
125
126
127
128
129
130
131
132
133
134
135
136
137
138
139
140
141
142
143
144
145
146
147
148
149
150
151
152
153
154
155
156
157
158
159
160
161
162
163
164
165
166
167
168
169
170
171
172
173
174
175
176
177
178
179
180
181
182
183
184
185
186
187
188
189
190
191
192
193
194
195
196
197
198
199
200
201
202
203
204
205
206
207
208
209
210
211
212
213
214
215
216
217
218
219
220
221
222
223
224
225
226
227
228
229
230
231
232
233
234
235
236
237
238
239
240
241
242
243
244
245
246
247
248
249
250
251
252
253
254
255
256
257
258
259
260
261
262
263
264
265
266
267
268
269
270
271
272
273
274
275
276
277
278
279
280
281
282
283
284
285
286
287
288
289
290
291
292
293
294
295
296
297
298
299
300
301
302
303
304
305
306
307
308
309
310
311
312
313
314
315
316
317
318
319
320
321
322
323
324
325
326
327
328
329
330
331
332
333
334
335
336
337
338
339
340
341
342
343
344
345
346
347
348
349
350
351
352
353
354
355
356
357
358
359
360
361
362
363
364
365
366
367
368
369
370
371
372
373
374
375
376
377
378
379
380
381
382
383
384
385
386
387
388
389
390
391
392
393
394
395
396
397
398
399
400
401
402
403
404
405
406
407
408
409
410
411
412
413
414
415
416
417
418
419
420
421
422
423
424
425
426
427
428
429
430
431
432
433
434
435
436
437
438
439
440
441
442
443
444
445
446
447
448
449
450
451
452
453
454
455
456
457
458
459
460
461
462
463
464
465
466
467
468
469
470
471
472
473
474
475
476
477
478
479
480
481
482
483
484
485
486
487
488
489
490
491
492
493
494
495
496
497
498
499
</DataArray>
<DataArray NumberOfComponents='1' type='Int8' Name='IsActive' format='ascii'>
1
0
1
1
0
1
0
1
1
1
0
1
1
1
1
1
1
0
1
0
1
1
0
1
0
0
1
0
1
1
1
1
1
1
1
1
0
0
1
0
1
1
1
1
1
1
1
1
1
1
0
1
0
1
1
1
1
1
0
1
1
0
1
1
1
1
1
0
0
0
0
1
0
0
1
1
1
0
1
1
1
0
0
0
0
1
1
0
0
0
1
0
0
0
0
1
1
1
0
0
0
1
1
1
1
0
1
0
1
0
0
1
1
0
1
0
1
0
1
1
1
1
0
0
1
1
0
1
0
0
1
1
0
0
0
0
1
1
0
1
1
0
1
0
0
1
1
0
0
0
0
1
0
0
0
1
0
1
1
1
1
1
0
1
1
1
0
1
1
1
1
0
0
1
0
1
1
1
1
0
1
1
1
1
1
0
0
1
1
1
1
0
1
1
1
0
0
1
0
0
0
0
1
1
1
0
1
1
0
1
1
0
1
0
0
0
0
1
0
1
0
1
1
0
0
0
1
1
1
1
0
1
1
0
1
1
0
1
1
1
1
1
0
0
0
1
1
1
1
1
1
1
0
0
0
1
1
1
1
1
1
1
0
1
0
0
1
1
0
1
0
1
0
1
0
1
0
1
0
1
0
0
0
0
1
1
0
1
0
1
1
0
0
1
1
1
0
1
0
1
1
0
1
0
1
0
0
1
1
1
0
1
1
0
0
1
1
1
0
1
0
0
1
1
1
0
1
0
0
0
1
1
1
0
1
0
1
1
1
0
0
1
0
1
1
0
1
1
1
1
0
0
1
1
1
1
1
0
1
1
0
0
1
0
1
1
1
1
1
1
1
1
0
1
0
1
1
1
0
0
0
0
1
0
1
0
0
1
1
1
1
1
0
1
0
1
1
1
0
1
1
1
1
1
0
0
1
0
1
0
1
0
1
1
0
1
0
1
1
0
0
1
1
0
1
0
0
1
0
0
1
1
0
1
1
1
0
0
0
1
0
1
0
0
1
0
1
1
0
1
1
0
0
1
1
1
1
0
0
1
1
0
1
1
1
0
1
0
1
0
1
1
1
1
0
0
1
1
1
1
1
0
1
0
1
0
1
1
1
1
0
0
1
1
0
0
1
1
1
1
</DataArray>
<DataArray NumberOfComponents='1' type='Int32' Name='ParticleTetID' format='ascii'>
54235
-61515
7850
52435
-58962
8768
-66558
63883
53030
1874
-66561
41846
7490
39656
77546
65004
76717
-68099
8967
-66554
62050
100352
-58961
81758
-64916
-70586
70496
-61512
29086
52077
66749
34670
70779
69089
26937
63147
-66561
-66555
87770
-66557
57817
52778
12526
56964
61208
9538
11374
63023
74495
59907
-64914
66349
-61515
26620
19262
61509
29773
11876
-64917
61384
2824
-64914
24591
63185
72644
5866
68956
-64917
-66552
-66551
-66552
34
-112396
-64916
25184
72446
63032
-58965
60431
61224
39909
-72207
-64920
-66554
-58961
39656
61673
-61515
-66557
-66558
31822
-64917
-72207
-66561
-61515
34094
14060
73208
-64919
-66548
-66561
10805
56457
3808
6109
-58955
74403
-59786
6325
-66554
-66554
2273
37010
-61518
73857
-58965
50914
-64914
11287
58241
22749
66529
-64917
-66554
62987
29861
-146594
62751
-58962
-66560
21277
7544
-64914
-66588
-61518
-59791
58467
65257
-112396
7544
77733
-58965
68956
-61512
-58955
79165
61389
-58955
-59791
-156163
-66588
60985
-61515
-58955
-68105
12910
-66551
7267
28764
6229
62914
744
-64916
67435
52526
63042
-64914
43696
69880
69395
13615
-66560
-58958
61939
-61511
63095
10690
68840
63185
-58958
67350
58421
58613
68746
98736
-68105
-64919
26934
7279
6734
61713
-61518
69916
62690
30602
-66558
-59786
61961
-59783
-66560
-58958
-58965
43161
57412
61959
-59786
44119
60790
-66551
7290
62899
-72207
66788
-68102
-66561
-59788
-61511
61214
-61512
13209
-58955
32882
21293
-61518
-58955
-66551
65368
27485
61389
61871
-66561
27612
25197
-59785
72004
46225
-61518
66412
59155
61671
47985
63147
-61521
-61512
-58958
25536
77935
67125
57817
14543
65255
59804
-68103
-68102
-64917
26480
69113
7898
4462
57097
45080
25182
-66554
63170
-64913
-66551
5902
19217
-61521
12475
-64920
2213
-61514
28805
-61515
9298
-61517
64213
-64916
62900
-64920
-64916
-66561
-64920
59421
22587
-66564
29214
-58961
24926
60985
-61512
-58955
19262
1707
63122
-66551
4694
-61518
7436
7511
-66555
56451
-126563
69787
-66558
-61514
67578
18593
79246
-66561
7468
47674
-66555
-66551
7399
67856
42104
-64920
63131
-58965
-58955
70538
53085
31337
-72207
43166
-66560
-59786
-61512
14508
7310
69400
-66557
6262
-66557
50955
64637
52777
-58962
-58955
7520
-66551
59841
699
-61518
24498
66860
44996
69106
-61512
-66561
8048
59245
28531
7553
53263
-68102
60789
56872
-58955
-66551
67107
-58961
28345
73516
6240
27629
6796
57997
30936
7490
-61511
65009
-59788
51577
82961
57171
-61512
-68102
-66557
-66551
52399
-66551
2276
-112399
-58955
61225
63440
11200
56872
2374
-61518
66227
-66555
25973
57439
11589
-61518
7364
62681
7642
71019
19618
-64920
-66551
50906
-66552
63185
-59786
73767
-66561
74217
7942
-61518
73310
-61511
66155
10498
-61518
-58965
30867
45469
-72210
58683
-61518
-59791
51895
-66551
-126559
67473
69395
-72207
68227
2276
25289
-61512
-61518
-64913
34467
-66591
56043
-58955
-66557
31365
-59791
79023
69841
-64916
31822
30080
-66551
-66561
82989
30454
77720
55135
-61515
-66552
56991
11210
-64919
63113
27483
7472
-66551
58897
-61512
36933
-59783
29086
63865
12922
27148
-127033
-66551
34130
64287
62987
7531
31247
-61512
38286
-64919
61426
-58965
32898
68897
52155
60303
-68105
-68106
51739
98736
-153844
-66551
152853
69842
58449
65185
</DataArray>
<DataArray NumberOfComponents='3' type='Float32' Name='vels' format='ascii'>
0.950204 -0.624579 -0.065750
2.941750 0.743093 0.251364
0.217520 0.062918 0.000845
0.600108 0.051323 0.002029
4.011166 -0.808442 0.007605
0.203383 -0.031558 -0.000071
5.291425 0.658114 0.015048
1.177471 -0.092766 0.000287
1.146906 -0.598018 -0.123295
0.073478 0.012003 -0.000619
4.043204 0.516567 -0.062035
0.071845 0.444284 -0.012217
0.039606 0.000290 -0.000121
0.875770 -2.633968 -0.000604
0.206253 0.004905 0.001130
3.178057 -0.618227 -0.002473
0.120849 0.005292 -0.000615
1.841632 -0.359408 0.096556
1.429024 0.273500 -0.000852
4.618366 0.202199 0.374453
0.103414 0.016726 0.000703
0.000324 -0.003617 0.000000
3.564954 -0.948543 -0.100939
-0.000078 0.002892 0.001162
5.081494 -0.728568 0.061442
2.709453 -0.571234 0.037044
0.833546 1.342438 -0.001649
2.291721 0.555347 0.251364
0.041844 -0.015220 -0.000043
2.133539 -0.709919 -0.254602
0.001874 -0.000023 0.000081
1.355617 -0.233449 0.000025
2.055529 -0.481113 0.000994
0.078974 -0.000064 0.001707
1.364374 0.447524 -0.000960
0.641196 0.004334 0.002217
3.361597 0.485264 0.057820
5.072144 0.616756 0.203979
0.696361 0.318573 -0.392836
4.822554 0.159554 -0.071552
0.895759 0.131415 0.000154
0.687808 0.307227 0.001547
0.001147 -0.000073 -0.000000
2.399818 0.554998 0.002459
0.164760 0.000036 0.000155
0.354782 0.005657 0.000297
0.022829 0.023771 -0.000009
0.453346 -0.001958 0.000080
3.632588 -1.804888 0.008224
0.345075 -0.004412 -0.000710
2.926561 -0.297746 0.581025
0.941786 0.029485 0.004292
2.831417 0.656188 0.157502
0.470273 -0.152288 -0.000141
0.000342 0.000067 -0.000257
1.803197 0.432181 0.014198
0.246252 0.132676 -0.000506
0.066670 -0.000144 0.001843
4.325011 -0.485807 0.474073
0.685022 0.001094 -0.008141
0.004878 0.002625 -0.000006
3.009809 -0.323029 0.523657
2.364077 0.519441 0.382258
0.018936 0.000027 0.000474
2.144116 -0.272372 -0.194980
0.001973 -0.000301 0.000000
0.000407 0.001120 0.000000
4.340364 -0.231916 0.365021
3.114425 0.129711 0.500337
4.121013 0.480241 0.104173
3.314428 0.340714 0.441299
0.000145 -0.001540 0.000016
46.675339 14.517866 -0.076229
4.966831 -0.741021 0.103249
0.876401 0.162955 0.001919
0.158947 0.132766 -0.030708
0.042996 -0.000138 -0.000189
4.058145 -0.762731 -0.344492
0.007781 -0.000105 -0.000422
0.006776 -0.000008 -0.000018
0.789995 -2.845341 -0.016621
2.447300 0.404613 0.136695
4.955756 -0.666599 0.026369
5.270291 0.597518 0.093265
3.790543 -0.755850 0.004429
0.771691 -2.433476 -0.000944
1.479403 -0.389664 0.003563
2.891380 0.658313 0.072510
4.708169 0.714293 0.041555
5.286538 0.662013 0.016323
0.306400 0.018406 0.000310
4.335292 -0.493674 0.469468
2.376679 0.415278 0.303110
3.978817 0.514039 -0.035953
2.925429 0.736889 0.253986
0.325072 -0.113784 0.001358
0.523069 0.057187 0.000208
0.019005 -0.000140 -0.000364
4.657912 -0.665986 -0.017331
0.402313 0.016930 0.069481
4.122142 0.520750 -0.092827
0.002779 -0.000009 0.000083
4.259818 -0.403862 0.001092
-0.000319 -0.000016 -0.000983
-0.001475 -0.000247 -0.002498
3.529941 -0.711878 0.030954
0.767449 0.569172 -0.000770
5.068028 0.739679 0.098900
0.174108 0.027783 -0.000325
5.282705 0.607003 0.090999
4.672356 0.220515 0.340548
0.000983 0.001577 0.000469
0.536435 -0.998368 0.004362
2.719856 0.689432 0.014472
2.779853 -0.137301 0.000468
3.526443 -0.813141 -0.314200
0.113233 -0.074537 0.019051
2.977139 -0.317598 0.549789
0.553091 0.156962 0.000312
1.751314 0.035133 -0.002290
0.337699 0.526043 0.000370
1.065729 0.053365 -0.000673
5.097804 -0.739710 -0.004191
5.187976 0.534039 0.131804
0.030262 0.000035 0.000202
0.081093 -0.077096 -0.000196
0.063052 -0.112684 0.126129
0.126837 0.000467 0.000270
3.941319 -0.939718 0.019078
3.094111 0.466580 0.051646
0.639043 0.711609 -0.003086
0.018607 0.000006 -0.001480
2.947628 -0.317004 0.559127
3.315421 0.229466 0.303735
3.114699 0.812712 -0.006021
3.981705 0.784788 -0.179278
1.744321 0.043849 -0.003135
2.490653 -0.063875 -0.000066
46.605008 17.425592 -0.121316
0.025664 -0.000041 -0.001123
2.385725 0.033058 -0.003918
3.273935 -0.703619 -0.146819
0.002950 0.003468 -0.000001
2.267504 0.537684 0.170558
3.031390 -0.650702 0.168210
0.265255 0.033825 0.000159
0.006509 -0.000003 0.000071
3.485382 -0.705401 0.047642
4.244217 0.718171 -0.088138
0.078912 -0.035162 -0.038296
3.309975 0.272851 0.268077
0.673273 0.049328 -0.000696
3.143853 0.750221 0.009430
3.065246 -0.673178 0.198509
4.241233 -0.744797 0.007929
1.504154 -1.305716 0.004991
3.991307 0.425104 0.155119
0.484300 -0.002273 0.001657
1.291220 -0.388121 0.000601
1.160612 0.159725 -0.000115
0.476690 -0.002388 -0.000359
1.520870 -0.449004 -0.000911
4.864729 -0.743999 0.144699
2.298211 -0.040601 -0.001107
1.189736 0.377097 -0.008195
0.907750 -0.007155 -0.000725
2.983754 -0.330680 0.536378
-0.045323 -0.155250 -0.008577
0.108574 0.003451 0.001137
0.063256 0.000169 -0.000945
1.445541 0.382723 0.002767
2.912069 0.446903 0.058844
4.195891 -0.823559 0.007726
0.586160 0.249163 0.002709
3.421469 0.801853 0.232091
0.003449 0.000007 0.000674
-0.000982 0.000091 0.000120
0.002314 0.000005 0.000269
0.960825 0.010171 0.000275
3.998002 -0.839101 0.052347
2.110691 0.001447 -0.002596
3.751122 -0.806524 0.012396
2.647189 0.129200 0.003675
3.811841 -0.809877 0.000785
-0.000044 0.000819 0.001294
3.746715 -0.624846 0.010220
4.537418 -0.639668 -0.001990
1.345669 0.451532 -0.001077
0.052352 0.000014 -0.000481
0.408862 0.069675 -0.000720
2.551812 -0.230665 -0.000358
3.114020 0.835475 0.004567
2.423766 0.335915 -0.006602
0.012188 -0.000002 -0.000061
0.549044 -0.554055 0.000692
5.273003 0.663612 0.018242
5.040750 0.742126 0.111195
0.045829 -0.000006 -0.000459
4.238118 0.605920 0.212747
3.032198 0.458377 0.052126
3.570209 -0.858505 0.231158
3.211295 -0.716464 -0.163990
0.459011 -0.768732 0.002986
3.385671 0.679893 -0.006552
0.865700 0.009001 0.000991