<VTKFile type='UnstructuredGrid' version='1.0' byte_order='LittleEndian' header_type='UInt64'>
<UnstructuredGrid>
<Piece NumberOfCells='500' NumberOfPoints='500'>
<Points>
<DataArray NumberOfComponents='3' type='Float32' Name='Position' format='ascii'>
489.748153 202.955553 -4.683220
1029.059357 188.209033 -16.808274
-248.544071 348.386505 -6.041233
523.926699 256.368441 -6.372712
1029.278797 232.304881 -20.074967
-210.908858 122.496063 -2.090310
1029.253611 152.748402 -21.930599
689.936207 250.889158 -5.745382
482.676974 213.310477 -4.370568
-138.186244 278.936087 -5.032425
1029.136333 154.676584 -29.201451
15.325457 75.383137 -30.630865
-188.278681 222.738252 -5.996792
448.550959 49.182916 -2.952076
561.887977 204.094889 -4.715053
1014.466447 254.136953 -15.310038
814.298384 175.977793 -6.641096
1029.087137 262.783777 -11.868301
-193.279716 311.064995 -6.738709
1029.193912 138.980634 -19.474711
781.155884 147.068394 -13.159754
225.583806 163.679542 -4.520162
1029.076102 228.539705 -26.569211
460.841304 396.388353 -3.985480
1029.103216 249.678682 -17.080837
1028.990499 208.533237 -16.447437
552.960526 162.760197 -17.603177
1029.136178 186.426719 -8.694585
0.860797 295.065990 -37.551890
541.365590 365.198343 -7.550217
590.672961 215.298665 -12.235242
210.436287 180.636579 -2.680703
853.668677 308.641719 -8.733126
890.890627 217.353772 -9.737993
422.306524 386.274159 -3.543799
701.416383 187.153799 -7.818179
1029.074164 155.183680 -27.112406
1029.321351 153.281068 -16.377951
454.123870 81.990490 -32.464250
1028.982668 142.206514 -26.628187
669.719652 46.716673 -6.241757
515.820800 77.044024 -2.880660
0.471175 184.212662 -37.066599
829.720168 90.176607 -29.936700
643.223895 214.617753 -17.609348
-276.573230 218.287683 -37.626165
-0.018071 120.156167 -35.171289
751.818749 216.064695 -9.011059
1029.339088 256.934836 -22.392138
618.936125 188.873556 -7.074850
1029.096555 251.048780 -9.627166
549.540948 253.234378 -5.700777
1029.044092 190.888146 -17.070591
45.213396 284.271066 -37.272751
-491.813157 186.656341 -1.977986
1029.140656 185.673421 -7.749712
311.232766 301.491486 -5.480534
-308.731198 182.451943 -31.640064
1029.281029 251.617953 -16.541149
590.980670 6.269967 -11.641989
-0.106951 175.821123 -33.997872
1029.144067 251.298274 -9.433218
479.093244 392.445669 -6.646578
740.618694 183.779496 -10.683850
1029.099325 207.296483 -29.207397
0.006660 260.689755 -37.443522
499.988503 101.707783 -36.608414
1029.003818 260.121252 -19.353480
1029.219105 141.565174 -7.227381
1029.030335 140.847806 -10.327024
1029.210581 151.177371 -10.058554
-355.696703 183.319705 -34.961572
422.743582 386.163063 -3.664093
1029.370072 249.889205 -17.917543
322.477948 231.931242 -3.118790
568.657795 204.030028 -29.882034
734.152125 216.407605 -28.755239
1029.088630 226.583231 -26.791639
595.989646 191.475846 -8.189315
622.680061 181.822897 -13.339212
472.966575 41.098116 -6.241885
1029.075219 199.084609 -13.594524
1029.306689 250.607125 -21.757990
1029.275264 140.263570 -17.033113
1029.110714 228.986199 -22.802082
452.216328 50.363521 -3.220227
831.763024 317.747531 -10.677554
1029.150350 191.275146 -16.086105
1029.304192 140.303527 -20.675616
1029.296586 152.742705 -21.728450
14.809092 235.534746 -35.310525
1029.317875 251.504023 -16.457303
1029.142010 196.584875 -14.344229
1029.292726 155.217574 -29.018318
1029.213633 188.409014 -16.858498
257.350332 208.130740 -2.667285
3.415101 225.995576 -2.499859
606.622194 262.012212 -6.173036
1029.337316 249.376128 -23.538960
1029.006290 140.497051 -6.606818
1029.101994 154.322595 -29.456101
-91.698053 386.165737 -12.159199
1029.023898 231.951962 -20.916878
-432.511718 176.886335 -26.667575
-389.586029 245.931774 -20.010355
1029.244989 230.300666 -9.687840
579.577173 168.232116 -20.553066
1029.318341 165.992030 -17.959244
-316.251466 256.765721 -19.833394
1028.977543 140.299234 -17.001177
1029.189046 140.141349 -19.420439
-501.897255 192.336278 -9.680083
193.234664 211.959454 -2.934236
1029.088515 191.145182 -20.070877
1029.119364 214.611647 -7.296110
1029.162892 231.219450 -28.952026
363.077339 74.329020 -21.703788
1029.069190 250.884586 -9.429735
-237.233526 354.141972 -5.543071
761.750974 174.997590 -22.306368
-2.283849 72.805670 -35.887523
653.456138 159.036336 -4.941003
1029.203531 259.133438 -14.979347
1029.386622 140.349597 -17.517165
675.046315 214.967635 -8.808049
98.018967 262.657712 -33.946257
377.639320 41.467018 -2.348081
595.517309 213.554039 -7.162413
1029.257480 229.715106 -21.899225
1029.221177 141.549552 -28.168380
-48.561691 98.661502 -4.943477
-243.592729 214.028036 -5.286334
1029.184340 250.622315 -9.354484
1029.115912 138.104862 -11.754595
1029.020587 188.147850 -23.823336
1029.259073 166.069571 -28.080659
994.412026 179.981480 -8.095401
833.468470 218.542863 -17.656328
422.237684 386.356569 -3.913509
-242.541195 212.553255 -3.773323
1028.976683 198.275371 -20.143932
1029.216848 231.067388 -27.441933
501.629821 101.233492 -36.475456
1029.134359 189.002731 -8.993922
1028.982673 228.031097 -11.093356
570.261449 366.115431 -6.512856
565.829807 8.138095 -20.019683
1029.064718 230.128527 -9.890916
1029.261154 171.158954 -29.184869
381.472231 52.266270 -10.001146
1029.152980 136.636137 -10.985803
632.030546 344.545686 -6.230363
1029.072949 189.720784 -13.672791
1029.126679 229.823613 -11.368067
1029.116635 266.379400 -22.171789
82.784663 297.853310 -13.314745
1029.194718 140.926378 -10.790143
-179.503153 180.140341 -31.703777
156.167399 189.822484 -2.937846
51.546496 227.338986 -5.599001
695.481201 220.467321 -12.344072
13.344823 323.672997 -13.293762
1029.165082 249.277036 -18.436584
725.655851 250.248398 -17.281840
512.585718 68.310213 -2.672418
839.746361 215.417203 -13.769164
1029.162656 250.509853 -9.214404
314.091391 172.635856 -26.550675
506.873848 3.925868 -13.174170
532.353251 10.074049 -12.411750
-139.143229 382.712096 -18.942600
1028.993105 141.600352 -27.791848
1029.312762 229.305865 -15.668280
572.884534 222.834719 -4.425846
1029.207264 189.143456 -11.935037
762.403276 179.993779 -12.386644
-521.957448 274.740078 -37.157410
931.603791 177.117684 -19.486987
736.742390 187.373656 -9.555574
1029.259166 229.986926 -17.220021
1029.103068 198.247599 -27.320136
1028.989402 252.799752 -25.582654
1029.160703 187.417509 -7.500706
1029.086343 261.955222 -10.171866
90.113943 179.346010 -26.223057
1029.196213 265.861447 -23.563606
1029.060599 250.741090 -23.158830
502.215037 368.293613 -11.159623
-242.557295 175.717972 -19.952913
-229.811823 299.863264 -3.446255
811.298436 243.826412 -21.312484
1029.139103 188.001014 -24.091368
996.529740 159.750235 -12.502632
653.948888 214.381925 -28.452263
123.189354 220.786281 -2.383002
1029.246652 152.097065 -21.274371
1029.238727 166.185289 -18.220476
571.652654 6.236797 -12.344750
1029.317852 166.310171 -11.196974
1029.074538 141.753036 -28.112455
1028.978325 226.681346 -19.098767
1029.070636 229.001683 -26.946571
137.749175 212.413755 -34.915487
935.398101 137.313578 -26.352203
585.213689 8.437259 -7.672789
1029.134247 165.425647 -17.916420
191.099239 170.885554 -4.982885
1004.249162 254.792003 -10.177664
1029.191202 138.906774 -12.100933
-228.619899 180.660139 -2.581121
715.166631 213.728088 -15.864839
1028.987540 207.207378 -15.083185
1003.218417 252.863471 -18.883938
1029.083419 261.565138 -18.628778
1029.186294 141.644426 -26.875536
1029.125480 163.915666 -20.865933
1029.067550 187.903334 -11.437351
635.373875 214.515990 -28.233430
1028.977323 191.701105 -10.560304
-39.228604 25.526815 -34.447554
1029.130325 227.908705 -11.363294
273.874830 201.378759 -29.226608
-41.038014 97.834367 -34.172048
1028.994581 191.539402 -20.807746
1029.089074 228.582486 -11.134421
1029.032689 139.337093 -11.491075
720.581256 180.270410 -26.196479
310.229323 183.178184 -36.217765
566.919334 8.061241 -20.050023
959.079726 175.643891 -8.060223
1029.058995 154.448558 -27.720059
336.243127 260.414967 -3.404747
329.648751 233.942920 -36.139344
1029.130825 162.909080 -15.085360
1029.287445 139.578995 -9.591735
232.786235 299.920928 -6.803407
1029.138655 191.579951 -20.417899
555.073642 207.183687 -25.649587
580.275854 180.803946 -19.819917
813.526498 320.342137 -9.656552
241.474354 167.073649 -34.736247
704.809251 185.583786 -7.386989
1029.114565 185.116480 -26.917102
1029.027159 188.449629 -8.741109
1029.088616 227.990706 -18.525192
493.069608 107.444658 -23.864329
605.989744 190.607741 -29.968840
690.523138 348.503091 -8.207388
676.756537 49.019570 -6.593817
-2.073226 156.114393 -34.190688
840.570903 216.991781 -8.094498
971.215251 217.934277 -16.887069
1029.000713 266.680231 -14.841078
1029.019230 264.554280 -17.341043
1029.020443 260.195748 -17.082613
292.102651 198.500666 -4.852365
563.017768 166.830854 -23.965592
-145.290262 383.152748 -30.777984
-66.546195 316.500045 -36.971082
563.443633 191.150653 -6.147252
318.472345 188.744308 -18.128209
336.313595 238.949170 -3.516503
1028.992364 140.724015 -18.226469
834.939513 190.637809 -14.539697
1029.288175 250.532170 -11.240318
1028.982169 140.578835 -8.523235
-0.004905 205.810574 -36.840379
-498.932021 188.842907 -24.860833
1028.991480 184.793799 -26.995024
-168.229652 278.746634 -4.181808
1029.263509 251.378450 -21.648380
-405.745584 126.076231 -35.862715
1029.055936 181.494904 -18.997324
311.076888 157.685218 -11.364102
1029.168282 189.604127 -16.148881
-165.647337 174.563532 -26.108139
1029.060040 188.469406 -26.483053
844.421541 156.607721 -19.818562
1029.062033 251.332961 -17.754174
724.896121 220.071189 -19.110242
1029.058731 251.612451 -21.507725
1029.209896 251.530546 -18.765869
1029.226357 141.141672 -26.962504
1029.035831 258.818714 -21.723534
971.573622 178.645318 -7.655008
-65.006491 109.356311 -33.885238
1028.992617 143.275617 -33.765066
110.827262 262.467692 -4.245171
1029.052570 231.238678 -23.593649
455.375017 252.088519 -15.766626
625.545996 338.507335 -6.231623
1029.019086 186.784368 -8.920433
1029.062089 229.606706 -11.842059
-492.709060 185.908280 -3.423631
-11.911035 73.750330 -33.923016
721.168591 186.045635 -29.559287
1029.055737 139.105929 -11.640209
-97.585415 110.899306 -31.559807
1029.084872 192.212440 -20.238293
-273.764940 212.091520 -4.929028
-141.573697 217.373023 -12.684451
1028.996143 151.715862 -17.273462
993.519758 238.115045 -6.801847
411.591621 245.039275 -3.410562
568.218528 204.726453 -5.399123
1029.256785 153.702561 -22.613375
1029.274629 189.295571 -19.419725
595.206733 371.935143 -15.477918
-22.111900 121.574067 -33.501531
1029.096721 252.600993 -23.946544
1029.235200 153.879772 -27.568629
-305.816846 212.196861 -36.550443
205.780089 217.302378 -26.050605
1029.273908 151.732683 -17.452964
1029.014351 139.407205 -11.818104
-215.491660 215.346335 -4.400253
1028.984348 184.826144 -32.941579
473.308980 55.971525 -3.815964
1028.980649 249.835231 -21.175183
695.905877 187.304764 -11.249577
1029.188393 230.634547 -28.444128
1029.080799 230.197874 -9.454699
585.284776 214.427142 -30.983299
533.800436 384.806853 -7.539268
255.473252 197.077236 -35.409514
1029.008500 206.564596 -15.792315
461.591839 68.110126 -2.203433
1029.067852 141.603446 -27.818469
1029.069269 165.176413 -18.524279
1029.133526 191.427176 -10.540003
-21.504173 219.614786 -3.020077
-154.486871 174.485623 -5.550450
518.477479 5.624953 -25.471263
1029.220334 140.786220 -22.054353
-3.189444 232.543739 -37.703138
1029.175277 141.288491 -25.554240
344.181288 85.423770 -33.465200
691.001579 259.091932 -34.750014
535.849404 85.388854 -4.872862
1029.228811 229.056026 -21.423484
1029.263211 229.727649 -8.828450
-108.485397 220.371545 -32.183140
1029.255636 140.847097 -10.347196
812.206218 319.733969 -22.135873
0.101168 131.051995 -34.211780
1029.093018 189.431262 -22.359625
59.111643 293.440927 -2.570477
693.558637 253.392543 -16.852640
350.643522 78.040644 -29.979129
535.404544 169.100384 -11.134226
1029.146176 187.848913 -9.040993
1029.240783 141.515258 -27.379984
-300.147311 335.963987 -5.934625
1029.025452 191.423095 -15.451683
260.675419 295.531540 -5.943431
-235.921793 218.941299 -26.193930
484.947745 3.840541 -10.081131
1029.083022 262.773429 -19.497108
994.506482 256.190379 -8.369290
992.787433 269.580724 -26.117943
1029.137774 227.226450 -10.712844
1029.144133 141.824809 -12.094427
696.301613 350.459465 -7.737425
1029.072346 230.843770 -24.585391
25.618380 93.308251 -31.806471
539.640497 5.621529 -11.522221
261.868261 203.840478 -27.017093
335.281707 266.977624 -35.858823
-195.721381 118.452820 -26.136852
651.371809 123.044795 -6.113763
476.340015 90.958245 -23.493232
-178.219524 220.461184 -5.665121
1029.220458 185.847851 -11.251454
1017.907662 253.608917 -23.391704
1029.129728 164.701498 -20.667179
536.498050 160.129327 -19.594867
387.776397 289.178675 -6.673083
793.027458 96.945172 -6.722669
1029.029557 189.622144 -9.059488
1029.097936 262.061277 -16.866182
1029.292222 139.341657 -20.537809
1029.028994 140.404660 -8.938870
523.062040 9.554250 -6.875494
1029.005844 140.255329 -9.204981
-501.234701 193.392782 -16.514683
422.364659 386.234165 -5.736371
1029.087163 227.049554 -11.271518
636.713439 187.586365 -19.185397
702.706810 363.845885 -18.115121
-90.961449 10.407746 -11.622855
988.171422 259.448666 -25.246393
-353.082458 212.066045 -37.961653
1029.146218 191.360374 -20.366622
742.339987 172.402401 -9.074158
1028.984297 152.167014 -15.410153
323.910385 225.431390 -34.358045
1028.977495 139.629717 -6.673073
-4.240215 349.021219 -34.781266
1029.217982 189.239624 -24.197824
-208.470501 177.437271 -5.576145
656.142315 214.744563 -9.209652
-294.559821 61.643842 -26.393448
899.014059 117.758769 -20.460907
15.639678 326.096863 -36.136125
1029.187656 251.079710 -22.841616
1029.318670 140.222168 -7.695200
353.092201 78.339136 -5.050625
1029.189180 152.203793 -9.786901
740.885338 183.782495 -10.577738
1029.020630 165.105675 -19.151886
635.134325 169.161295 -6.983735
1029.190473 154.549839 -27.821762
925.678202 110.756359 -6.788023
-198.839323 366.172508 -12.557273
1028.992859 189.529076 -21.214293
954.206886 126.035319 -28.314237
1029.122687 189.627835 -12.980992
630.079505 259.330675 -8.248332
54.445990 222.800918 -11.824014
1029.067094 190.358882 -21.601804
1029.149717 228.931587 -26.989552
28.711008 151.951095 -35.751620
375.111027 355.385432 -6.055376
1029.126705 199.221430 -20.196635
800.901669 176.369882 -7.079416
1029.154759 191.002642 -23.581673
1029.118563 166.532241 -28.691753
516.001667 214.604055 -4.505358
1029.114841 139.297521 -11.567960
411.558032 245.110662 -3.276845
1029.136270 191.163161 -23.318089
528.607377 6.228778 -10.509525
1029.105731 205.069380 -15.635904
887.226963 113.654979 -19.397301
-501.472728 193.626870 -17.024345
302.284719 202.090732 -36.078384
1029.120078 187.702432 -9.310782
1029.163817 184.148452 -21.974278
1029.312471 248.234907 -9.873754
244.045812 192.988386 -35.462762
1029.328978 136.843542 -18.881703
538.164255 315.580377 -24.757398
1029.222021 229.310936 -11.098716
1029.172426 140.413768 -21.018412
304.702641 169.384368 -21.967806
1029.118423 167.132526 -29.081801
1029.032436 162.086172 -8.090933
875.214296 100.500874 -6.682768
1029.236015 251.014534 -17.909152
32.902459 237.937122 -37.053064
318.463989 252.525688 -3.178814
1028.977966 139.590846 -10.513834
1029.013381 155.959542 -27.775785
375.095502 240.190017 -19.094630
29.235195 239.570751 -36.816273
1029.030631 206.195502 -29.210784
495.209101 119.056833 -6.853166
1029.122752 191.332256 -15.803695
1029.022018 152.098673 -9.721617
942.516643 172.991178 -8.042306
-57.599838 17.400083 -31.763760
1029.034602 250.235039 -24.035320
719.320536 178.998248 -12.176970
309.974426 168.736489 -35.861534
-231.070377 218.634104 -6.136991
1029.121923 139.486113 -10.572183
703.224110 55.252269 -6.210326
1029.016906 187.725508 -9.274138
370.413601 253.602389 -32.987183
1029.281845 164.317919 -10.568704
0.754006 295.073036 -37.662596
611.037370 335.659179 -6.015741
2.004098 329.581063 -35.928830
323.997220 13.249654 -9.893365
400.884835 273.474580 -5.355285
1029.080642 139.809185 -8.448109
470.363237 77.796446 -2.354828
964.077534 262.880544 -23.998440
672.981637 215.077911 -8.351472
-163.421097 213.801827 -19.309601
62.619384 306.449036 -37.217167
1029.091622 188.026010 -8.426024
294.345982 188.813281 -3.156384
1029.233175 246.857364 -23.058501
551.259510 384.571030 -26.221757
1029.182799 226.565878 -26.855878
360.728516 62.867049 -23.155639
871.407961 308.254079 -24.065870
544.611458 153.997369 -22.549720
814.743518 176.795722 -6.875768
1029.147602 265.728428 -24.808093
1028.979811 266.614511 -21.884949
529.136977 389.102996 -24.048890
89.748889 178.072107 -26.417537
378.075462 7.721897 -0.963226
1029.072314 141.391280 -11.738849
495.236781 52.865144 -5.299156
859.146336 97.112325 -6.026342
545.450231 313.223202 -6.933049
758.288411 215.785373 -17.477683
</DataArray>
</Points>
<PointData>
<DataArray NumberOfComponents='1' type='Int32' Name='ParticleType' format='ascii'>
1
1
1
1
1
1
1
1
1
1
1
1
1
1
1
1
1
1
1
1
1
1
1
1
1
1
1
1
1
1
1
1
1
1
1
1
1
1
1
1
1
1
1
1
1
1
1
1
1
1
1
1
1
1
1
1
1
1
1
1
1
1
1
1
1
1
1
1
1
1
1
1
1
1
1
1
1
1
1
1
1
1
1
1
1
1
1
1
1
1
1
1
1
1
1
1
1
1
1
1
1
1
1
1
1
1
1
1
1
1
1
1
1
1
1
1
1
1
1
1
1
1
1
1
1
1
1
1
1
1
1
1
1
1
1
1
1
1
1
1
1
1
1
1
1
1
1
1
1
1
1
1
1
1
1
1
1
1
1
1
1
1
1
1
1
1
1
1
1
1
1
1
1
1
1
1
1
1
1
1
1
1
1
1
1
1
1
1
1
1
1
1
1
1
1
1
1
1
1
1
1
1
1
1
1
1
1
1
1
1
1
1
1
1
1
1
1
1
1
1
1
1
1
1
1
1
1
1
1
1
1
1
1
1
1
1
1
1
1
1
1
1
1
1
1
1
1
1
1
1
1
1
1
1
1
1
1
1
1
1
1
1
1
1
1
1
1
1
1
1
1
1
1
1
1
1
1
1
1
1
1
1
1
1
1
1
1
1
1
1
1
1
1
1
1
1
1
1
1
1
1
1
1
1
1
1
1
1
1
1
1
1
1
1
1
1
1
1
1
1
1
1
1
1
1
1
1
1
1
1
1
1
1
1
1
1
1
1
1
1
1
1
1
1
1
1
1
1
1
1
1
1
1
1
1
1
1
1
1
1
1
1
1
1
1
1
1
1
1
1
1
1
1
1
1
1
1
1
1
1
1
1
1
1
1
1
1
1
1
1
1
1
1
1
1
1
1
1
1
1
1
1
1
1
1
1
1
1
1
1
1
1
1
1
1
1
1
1
1
1
1
1
1
1
1
1
1
1
1
1
1
1
1
1
1
1
1
1
1
1
1
1
1
1
1
1
1
1
1
1
1
1
1
1
1
1
1
1
1
1
1
1
1
1
1
1
1
1
1
1
1
1
1
1
1
1
1
1
1
1
1
1
1
1
1
1
1
1
1
1
1
1
1
1
1
1
1
1
1
1
</DataArray>
<DataArray NumberOfComponents='1' type='Int32' Name='ParticleID' format='ascii'>
0
1
2
3
4
5
6
7
8
9
10
11
12
13
14
15
16
17
18
19
20
21
22
23
24
25
26
27
28
29
30
31
32
33
34
35
36
37
38
39
40
41
42
43
44
45
46
47
48
49
50
51
52
53
54
55
56
57
58
59
60
61
62
63
64
65
66
67
68
69
70
71
72
73
74
75
76
77
78
79
80
81
82
83
84
85
86
87
88
89
90
91
92
93
94
95
96
97
98
99
100
101
102
103
104
105
106
107
108
109
110
111
112
113
114
115
116
117
118
119
120
121
122
123
124
125
126
127
128
129
130
131
132
133
134
135
136
137
138
139
140
141
142
143
144
145
146
147
148
149
150
151
152
153
154
155
156
157
158
159
160
161
162
163
164
165
166
167
168
169
170
171
172
173
174
175
176
177
178
179
180
181
182
183
184
185
186
187
188
189
190
191
192
193
194
195
196
197
198
199
200
201
202
203
204
205
206
207
208
209
210
211
212
213
214
215
216
217
218
219
220
221
222
223
224
225
226
227
228
229
230
231
232
233
234
235
236
237
238
239
240
241
242
243
244
245
246
247
248
249
250
251
252
253
254
255
256
257
258
259
260
261
262
263
264
265
266
267
268
269
270
271
272
273
274
275
276
277
278
279
280
281
282
283
284
285
286
287
288
289
290
291
292
293
294
295
296
297
298
299
300
301
302
303
304
305
306
307
308
309
310
311
312
313
314
315
316
317
318
319
320
321
322
323
324
325
326
327
328
329
330
331
332
333
334
335
336
337
338
339
340
341
342
343
344
345
346
347
348
349
350
351
352
353
354
355
356
357
358
359
360
361
362
363
364
365
366
367
368
369
370
371
372
373
374
375
376
377
378
379
380
381
382
383
384
385
386
387
388
389
390
391
392
393
394
395
396
397
398
399
400
401
402
403
404
405
406
407
408
409
410
411
412
413
414
415
416
417
418
419
420
421
422
423
424
425
426
427
428
429
430
431
432
433
434
435
436
437
438
439
440
441
442
443
444
445
446
447
448
449
450
451
452
453
454
455
456
457
458
459
460
461
462
463
464
465
466
467
468
469
470
471
472
473
474
475
476
477
478
479
480
481
482
483
484
485
486
487
488
489
490
491
492
493
494
495
496
497
498
499
</DataArray>
<DataArray NumberOfComponents='1' type='Int8' Name='IsActive' format='ascii'>
1
0
1
1
0
1
0
1
1
1
0
1
1
1
1
1
1
0
1
0
1
1
0
1
0
0
1
0
1
1
1
1
1
1
0
1
0
0
1
0
1
1
1
1
1
1
1
1
0
1
0
1
0
1
1
0
1
1
0
1
1
0
1
1
0
1
1
0
0
0
0
1
0
0
1
1
1
0
1
1
1
0
0
0
0
1
1
0
0
0
1
0
0
0
0
1
1
1
0
0
0
1
0
1
1
0
1
0
1
0
0
1
1
0
0
0
1
0
1
1
1
1
0
0
1
1
0
1
0
0
1
1
0
0
0
0
1
1
0
1
0
0
1
0
0
1
1
0
0
0
0
1
0
0
0
1
0
1
1
1
1
1
0
1
1
1
0
1
1
1
1
0
0
1
0
1
1
1
1
0
0
0
0
0
1
0
0
1
1
1
1
0
1
1
1
0
0
1
0
0
0
0
1
1
1
0
1
1
0
1
1
0
1
0
0
0
0
1
0
1
0
1
1
0
0
0
1
1
1
1
0
1
1
0
0
1
0
1
1
1
1
1
0
0
0
1
1
1
1
1
1
1
0
0
0
1
1
1
1
1
1
1
0
1
0
0
1
1
0
1
0
1
0
1
0
1
0
1
0
1
0
0
0
0
1
1
0
1
0
1
1
0
0
1
1
1
0
1
0
1
1
0
1
0
1
0
0
1
1
0
0
1
1
0
0
1
0
1
0
1
0
0
1
1
1
0
1
0
0
0
1
1
1
0
1
0
1
1
1
0
0
1
0
1
1
0
1
1
1
1
0
0
1
0
1
1
1
0
1
1
0
0
1
0
1
1
1
1
1
1
1
1
0
1
0
1
1
1
0
0
0
0
1
0
1
0
0
1
1
1
1
1
0
1
0
1
0
1
0
1
1
1
1
1
0
0
1
0
1
0
1
0
1
1
0
1
0
1
1
0
0
1
1
0
1
0
0
1
0
0
0
1
0
1
1
1
0
0
0
1
0
1
0
0
1
0
0
1
0
1
1
0
0
1
1
0
1
0
0
1
1
0
1
1
1
0
1
0
1
0
1
1
1
1
0
0
1
1
1
1
1
0
1
0
1
0
1
1
1
1
0
0
1
1
0
0
1
1
1
1
</DataArray>
<DataArray NumberOfComponents='1' type='Int32' Name='ParticleTetID' format='ascii'>
52274
-61515
11287
79291
-58962
6786
-66558
59294
55405
4339
-66561
31404
9505
53857
58573
72746
65341
-68099
6645
-66554
62122
31646
-58961
81758
-64916
-70586
58182
-61512
26620
79167
62752
38286
60159
71735
-112396
63111
-66561
-66555
54932
-66557
74305
69480
30472
68180
62684
7433
11374
62969
-64920
61221
-64914
76051
-61515
26567
19262
-61512
36830
7249
-64917
61367
2824
-64914
51733
63095
-72213
30490
52126
-64917
-66552
-66551
-66552
13173
-112396
-64916
32042
75002
62942
-58965
62771
61224
52525
-72207
-64920
-66554
-58961
51752
57587
-61515
-66557
-66558
31821
-64917
-72207
-66561
-61515
32436
31178
75349
-64919
-66548
-66561
11741
-58962
3810
6111
-58955
72243
-59786
8431
-66554
-66554
2273
37856
-61518
-70584
-58965
85994
-64914
12169
74477
14506
57764
-64917
-66554
62915
35045
-146594
62751
-58962
-66560
15715
7471
-64914
-66588
-61518
-59791
68295
67778
-112396
7471
-72210
-58965
68956
-61512
-58955
57457
61389
-58955
-59791
-156163
-66588
64639
-61515
-58955
-68105
37084
-66551
7393
36704
30260
62896
42970
-64916
66914
71190
67776
-64914
51022
69394
61403
16999
-66560
-58958
79724
-61511
65398
10690
59929
63095
-58958
-72213
-64919
-61512
-68099
98736
-68105
-64919
67576
9277
6662
57807
-61518
60197
62996
91872
-66558
-59786
61384
-59783
-66560
-58958
-58965
45574
68392
61365
-59786
25381
78807
-66551
9308
63026
-72207
78811
-68102
-66561
-59788
-61511
62690
-61512
17403
-58955
36770
15729
-61518
-58955
-66551
63190
48635
61389
59241
-66561
35336
36935
-59785
-66551
41529
-61518
57917
74419
56759
24497
65363
-61521
-61512
-58958
52119
65912
59999
61561
14542
67773
65870
-68103
-68102
-64917
28801
59103
7880
18053
56809
45080
32060
-66554
67040
-64913
-66551
5902
19217
-61521
6410
-64920
2213
-61514
45167
-61515
9388
-61517
62882
-64916
65185
-64920
-64916
-66561
-64920
60753
24405
-66564
28730
-58961
53414
69031
-61512
-58955
19262
2411
63194
-66551
1597
-61518
7418
17032
-66555
78465
-126563
74989
-66558
-61514
68335
22119
-64919
-66561
9448
90718
-66555
-66551
7400
-61520
52776
-64920
63113
-58965
-58955
66758
61295
32452
-72207
52416
-66560
-59786
-61512
19766
10207
73522
-66557
5921
-66557
50937
58209
56844
-58962
-58955
12703
-66551
56765
30869
-61518
29828
58200
25230
71825
-61512
-66561
9901
-61515
32564
7481
52942
-68102
79151
79588
-58955
-66551
59997
-58961
47137
61726
32448
37115
6886
57998
51869
7526
-61511
64917
-59788
75193
82961
70005
-61512
-68102
-66557
-66551
73515
-66551
2276
-112399
-58955
72692
63332
15017
79157
12886
-61518
70384
-66555
40463
-66552
21057
-61518
9397
62987
7606
72801
42981
-64920
-66551
50906
-66552
63095
-59786
58233
-66561
57837
7816
-61518
58296
-61511
71969
30820
-61518
-58965
48975
49357
-72210
65343
-61518
-59791
66404
-66551
-126559
-61518
61403
-72207
77857
2276
28817
-61512
-61518
-64913
26495
-66591
56495
-58955
-66557
30935
-59791
-59782
71769
-64916
25379
30782
-66551
-66561
82989
25379
-72213
51573
-61515
-66552
62787
5431
-64919
63185
46583
9415
-66551
61471
-61512
47713
-59783
26620
68923
40174
33753
-127033
-66551
52308
79804
62915
7513
32488
-61512
33410
-64919
61463
-58965
85518
60381
58222
63057
-68105
-68106
61427
98736
-153844
-66551
52508
57187
60267
62972
</DataArray>
<DataArray NumberOfComponents='3' type='Float32' Name='vels' format='ascii'>
0.189770 -0.175113 -0.000568
2.941750 0.743093 0.251364
0.813520 0.227337 -0.000829
0.721811 0.110802 0.002516
4.011166 -0.808442 0.007605
0.307427 -0.047116 0.000045
5.291425 0.658114 0.015048
1.344251 -0.121695 -0.002163
0.539312 -0.433644 -0.005715
0.884299 0.110533 0.003873
4.043204 0.516567 -0.062035
0.365006 0.420803 0.003629
0.665430 0.013854 0.002969
2.659490 0.421330 -0.296905
0.180054 0.155729 0.006327
4.678153 -0.485829 0.148449
0.007118 0.001986 0.001084
1.841632 -0.359408 0.096556
0.040155 0.006494 -0.000188
4.618366 0.202199 0.374453
0.115375 0.018510 0.000824
1.425796 0.102231 0.005394
3.564954 -0.948543 -0.100939
0.008382 0.000701 0.001278
5.081494 -0.728568 0.061442
2.709453 -0.571234 0.037044
1.476621 0.225584 0.000494
2.291721 0.555347 0.251364
0.009646 -0.003673 0.000007
1.119062 0.066196 0.000808
0.199618 0.000905 -0.001081
2.354079 0.126787 0.002757
2.742158 -0.650365 0.008432
1.185690 -0.003601 -0.004657
30.832558 8.406263 0.242404
0.677101 0.007346 -0.002331
3.361597 0.485264 0.057820
5.072144 0.616756 0.203979
0.011172 0.008202 0.000384
4.822554 0.159554 -0.071552
0.928309 0.203132 0.001382
0.622265 0.342680 0.000218
0.048495 0.024351 0.000013
2.682765 0.644470 0.006677
0.239755 -0.000133 -0.000177
0.266269 0.003364 0.001105
0.001100 0.000818 -0.000000
0.022647 -0.000006 0.000709
5.038774 -0.652624 0.013047
0.112554 0.000625 0.001770
2.926561 -0.297746 0.581025
0.954584 0.083892 0.000122
2.831417 0.656188 0.157502
0.518253 -0.168637 -0.000392
-0.001033 0.000399 -0.000282
2.459462 0.587685 0.168515
0.029547 0.010088 -0.000307
1.024164 -0.008589 0.003521
4.325011 -0.485807 0.474073
0.015048 0.000027 -0.000914
0.001909 0.000581 -0.000002
3.009809 -0.323029 0.523657
0.013120 -0.000235 -0.007435
0.005787 0.000006 0.000832
1.625300 0.032475 -0.102624
0.000693 -0.000543 0.000000
0.001073 0.001724 -0.000001
4.340364 -0.231916 0.365021
3.114425 0.129711 0.500337
4.121013 0.480241 0.104173
3.314428 0.340714 0.441299
0.965787 -0.005526 -0.000777
46.675339 14.517866 -0.076229
4.966831 -0.741021 0.103249
0.154445 0.083528 0.000675
-0.000112 -0.000474 -0.002465
0.416734 -0.002116 -0.000933
4.058145 -0.762731 -0.344492
0.076773 -0.001740 -0.000317
0.004219 -0.000003 -0.000038
2.008300 0.708703 -0.044939
2.447300 0.404613 0.136695
4.955756 -0.666599 0.026369
5.270291 0.597518 0.093265
3.790543 -0.755850 0.004429
2.862255 0.417449 -0.367213
2.874910 -0.684842 0.000965
2.891380 0.658313 0.072510
4.708169 0.714293 0.041555
5.286538 0.662013 0.016323
0.975156 0.062764 -0.000322
4.335292 -0.493674 0.469468
2.376679 0.415278 0.303110
3.978817 0.514039 -0.035953
2.925429 0.736889 0.253986
1.368201 0.431638 0.000439
0.678407 0.062530 0.000571
1.175024 -0.029779 0.000310
4.657912 -0.665986 -0.017331
0.402313 0.016930 0.069481
4.122142 0.520750 -0.092827
0.005747 0.000022 0.000148
4.068510 -0.838672 0.002245
-0.004077 -0.000002 0.001871
0.019101 0.003057 0.000618
3.529941 -0.711878 0.030954
1.942495 -0.018709 -0.000698
5.068028 0.739679 0.098900
0.317594 0.061127 -0.000079
5.282705 0.607003 0.090999
4.672356 0.220515 0.340548
0.001533 0.000079 0.000833
4.211691 0.503066 0.048954
2.719856 0.689432 0.014472
1.875758 -0.371275 0.170103
3.526443 -0.813141 -0.314200
0.003708 -0.001749 0.005587
2.977139 -0.317598 0.549789
0.391736 0.112276 0.000484
3.173896 0.182460 -0.000032
0.121520 0.188076 -0.000073
1.099457 0.056013 -0.000083
5.097804 -0.739710 -0.004191
5.187976 0.534039 0.131804
0.112692 0.000208 0.000068
0.137165 -0.175124 0.000348
0.063052 -0.112684 0.126129
0.133569 0.000972 -0.001039
3.941319 -0.939718 0.019078
3.094111 0.466580 0.051646
0.283034 0.379122 0.001778
0.362309 0.002364 0.000520
2.947628 -0.317004 0.559127
3.315421 0.229466 0.303735
3.114699 0.812712 -0.006021
3.981705 0.784788 -0.179278
2.652454 0.566763 -0.000582
0.057089 -0.000076 0.000399
46.605008 17.425592 -0.121316
0.828793 0.012529 0.000630
2.453705 0.036037 -0.002453
3.273935 -0.703619 -0.146819
0.123096 0.134122 0.000141
2.267504 0.537684 0.170558
3.031390 -0.650702 0.168210
0.656502 0.025409 -0.002158
0.009260 -0.000004 -0.000043
3.485382 -0.705401 0.047642
4.244217 0.718171 -0.088138
0.078912 -0.035162 -0.038296
3.309975 0.272851 0.268077
0.585835 -0.079522 -0.001534
3.143853 0.750221 0.009430
3.065246 -0.673178 0.198509
4.241233 -0.744797 0.007929
1.223143 -1.191319 0.000581
3.991307 0.425104 0.155119
0.569096 -0.003138 0.001183
2.708075 -0.180526 0.000075
1.518141 0.030692 0.004396
0.441912 -0.002350 -0.000419
2.103228 -1.033569 0.000768
4.864729 -0.743999 0.144699
2.936979 -0.264516 0.003772
0.658246 0.294883 -0.000688
0.902427 -0.007931 0.001152
2.983754 -0.330680 0.536378
-0.009392 -0.041338 -0.001644
0.066468 0.000021 -0.000771
0.020706 -0.000025 -0.000785
1.037435 0.274852 0.002239
2.912069 0.446903 0.058844
4.195891 -0.823559 0.007726
0.658485 0.209992 -0.000831
3.421469 0.801853 0.232091
2.201485 0.065149 0.001098
-0.000794 -0.000118 0.000119
0.559314 -0.007734 0.003972
0.789018 0.006670 -0.001059
3.998002 -0.839101 0.052347
2.110943 0.365026 -0.216448
4.558290 -0.718325 -0.153658
2.517882 0.602668 0.087560
2.602964 -0.618944 0.038887
-0.003140 0.002538 0.000362
3.746715 -0.624846 0.010220
4.537418 -0.639668 -0.001990
1.521258 -0.457749 -0.005711
0.417429 0.001215 0.001736
0.033117 0.005339 -0.000759
3.840535 -0.349576 0.005021
3.114020 0.835475 0.004567
3.167733 0.544463 -0.005972
0.009868 -0.000013 -0.000087
0.689974 -0.684051 0.005767
5.273003 0.663612 0.018242
5.040750 0.742126 0.111195
0.383803 0.000316 -0.005846
4.238118 0.605920 0.212747
3.032198 0.458377 0.052126
3.570209 -0.858505 0.231158
3.211295 -0.716464 -0.163990
0.030569 -0.006257 0.000040
2.948494 1.340289 0.010886